      -----------------------------------------------------------      
     |                   =====================                   |     
     |                           x T B                           |     
     |                   =====================                   |     
     |                         S. Grimme                         |     
     |          Mulliken Center for Theoretical Chemistry        |     
     |                    University of Bonn                     |     
      -----------------------------------------------------------      

   * xtb version 6.5.1 (b24c23e) compiled by 'conda@728c89f4b128' on 2022-07-12

   xtb is free software: you can redistribute it and/or modify it under
   the terms of the GNU Lesser General Public License as published by
   the Free Software Foundation, either version 3 of the License, or
   (at your option) any later version.
   
   xtb is distributed in the hope that it will be useful,
   but WITHOUT ANY WARRANTY; without even the implied warranty of
   MERCHANTABILITY or FITNESS FOR A PARTICULAR PURPOSE.  See the
   GNU Lesser General Public License for more details.
   
   Cite this work as:
   * C. Bannwarth, E. Caldeweyher, S. Ehlert, A. Hansen, P. Pracht,
     J. Seibert, S. Spicher, S. Grimme, WIREs Comput. Mol. Sci., 2020, 11,
     e01493. DOI: 10.1002/wcms.1493
   
   for GFN2-xTB:
   * C. Bannwarth, S. Ehlert and S. Grimme., J. Chem. Theory Comput., 2019,
     15, 1652-1671. DOI: 10.1021/acs.jctc.8b01176
   for GFN1-xTB:
   * S. Grimme, C. Bannwarth, P. Shushkov, J. Chem. Theory Comput., 2017,
     13, 1989-2009. DOI: 10.1021/acs.jctc.7b00118
   for GFN0-xTB:
   * P. Pracht, E. Caldeweyher, S. Ehlert, S. Grimme, ChemRxiv, 2019, preprint.
     DOI: 10.26434/chemrxiv.8326202.v1
   for GFN-FF:
   * S. Spicher and S. Grimme, Angew. Chem. Int. Ed., 2020, 59, 15665-15673.
     DOI: 10.1002/anie.202004239
   
   for ALPB and GBSA implicit solvation:
   * S. Ehlert, M. Stahn, S. Spicher, S. Grimme, J. Chem. Theory Comput.,
     2021, 17, 4250-4261. DOI: 10.1021/acs.jctc.1c00471
   
   for DFT-D4:
   * E. Caldeweyher, C. Bannwarth and S. Grimme, J. Chem. Phys., 2017,
     147, 034112. DOI: 10.1063/1.4993215
   * E. Caldeweyher, S. Ehlert, A. Hansen, H. Neugebauer, S. Spicher,
     C. Bannwarth and S. Grimme, J. Chem. Phys., 2019, 150, 154122.
     DOI: 10.1063/1.5090222
   * E. Caldeweyher, J.-M. Mewes, S. Ehlert and S. Grimme, Phys. Chem. Chem. Phys.
     2020, 22, 8499-8512. DOI: 10.1039/D0CP00502A
   
   for sTDA-xTB:
   * S. Grimme and C. Bannwarth, J. Chem. Phys., 2016, 145, 054103.
     DOI: 10.1063/1.4959605
   
   in the mass-spec context:
   * V. Asgeirsson, C. Bauer and S. Grimme, Chem. Sci., 2017, 8, 4879.
     DOI: 10.1039/c7sc00601b
   * J. Koopman and S. Grimme, ACS Omega 2019, 4, 12, 15120-15133.
     DOI: 10.1021/acsomega.9b02011
   
   for metadynamics refer to:
   * S. Grimme, J. Chem. Theory Comput., 2019, 155, 2847-2862
     DOI: 10.1021/acs.jctc.9b00143
   
   for SPH calculations refer to:
   * S. Spicher and S. Grimme, J. Chem. Theory Comput., 2021, 17, 1701-1714
     DOI: 10.1021/acs.jctc.0c01306
   
   with help from (in alphabetical order)
   P. Atkinson, C. Bannwarth, F. Bohle, G. Brandenburg, E. Caldeweyher
   M. Checinski, S. Dohm, S. Ehlert, S. Ehrlich, I. Gerasimov, C. Hölzer
   A. Katbashev, J. Koopman, C. Lavigne, S. Lehtola, F. März, M. Müller,
   F. Musil, H. Neugebauer, J. Pisarek, C. Plett, P. Pracht, F. Pultar,
   J. Seibert, P. Shushkov, S. Spicher, M. Stahn, M. Steiner, T. Strunk,
   J. Stückrath, T. Rose, and J. Unsleber
   
 * started run on 2022/11/14 at 22:11:59.704     

           -------------------------------------------------
          |                Calculation Setup                |
           -------------------------------------------------

          program call               : xtb C6H6.xyz --gfn2 --chrg 0 --uhf 1 --alpb ch2cl2 --opt 1
          coordinate file            : C6H6.xyz
          omp threads                :                     8

   ID    Z sym.   atoms
    1    6 C      1-6
    2    1 H      7-11

           -------------------------------------------------
          |                 G F N 2 - x T B                 |
           -------------------------------------------------

        Reference                      10.1021/acs.jctc.8b01176
      * Hamiltonian:
        H0-scaling (s, p, d)           1.850000    2.230000    2.230000
        zeta-weighting                 0.500000
      * Dispersion:
        s8                             2.700000
        a1                             0.520000
        a2                             5.000000
        s9                             5.000000
      * Repulsion:
        kExp                           1.500000    1.000000
        rExp                           1.000000
      * Coulomb:
        alpha                          2.000000
        third order                    shell-resolved
        anisotropic                    true
        a3                             3.000000
        a5                             4.000000
        cn-shift                       1.200000
        cn-exp                         4.000000
        max-rad                        5.000000

      * Solvation model:               ALPB
        Solvent                        ch2cl2
        Parameter file                 internal GFN2-xTB/ALPB
        Dielectric constant                8.9300E+00
        Reference state                gsolv [1 M gas/solution]
        Free energy shift                  4.1487E-03 Eh       2.6033E+00 kcal/mol
        Temperature                        2.9815E+02 K
        Density                            1.3300E+00 kg/L
        Solvent mass                       8.4930E+01 g/mol
        Interaction kernel             P16
        Born radius scaling (c1)           1.5691E+00
        Born radii integrator          GBOBC
        Born offset                        0.0000E+00 a0       0.0000E+00 AA
        H-bond correction              false
        Ion screening                  false
        Surface tension                    1.0000E-05 Eh       1.5569E+01 dyn/cm
        Grid points                               230 per atom

          ...................................................
          :                      SETUP                      :
          :.................................................:
          :  # basis functions                  29          :
          :  # atomic orbitals                  29          :
          :  # shells                           17          :
          :  # electrons                        29          :
          :  max. iterations                   250          :
          :  Hamiltonian                  GFN2-xTB          :
          :  restarted?                      false          :
          :  GBSA solvation                   true          :
          :  PC potential                    false          :
          :  electronic temp.          300.0000000     K    :
          :  accuracy                    1.0000000          :
          :  -> integral cutoff          0.2500000E+02      :
          :  -> integral neglect         0.1000000E-07      :
          :  -> SCF convergence          0.1000000E-05 Eh   :
          :  -> wf. convergence          0.1000000E-03 e    :
          :  Broyden damping             0.4000000          :
          ...................................................

 iter      E             dE          RMSdq      gap      omega  full diag
   1    -15.5363415 -0.155363E+02  0.527E+00    2.95       0.0  T
   2    -15.5448640 -0.852248E-02  0.315E+00    2.72       1.0  T
   3    -15.5384097  0.645427E-02  0.840E-01    3.18       1.0  T
   4    -15.5459380 -0.752824E-02  0.262E-01    2.74       1.0  T
   5    -15.5465731 -0.635091E-03  0.716E-02    2.86       1.0  T
   6    -15.5466018 -0.287469E-04  0.395E-02    2.83       1.0  T
   7    -15.5466034 -0.163084E-05  0.936E-03    2.84       3.2  T
   8    -15.5466042 -0.717879E-06  0.218E-03    2.84      13.9  T
   9    -15.5466042 -0.306661E-07  0.132E-03    2.84      22.9  T
  10    -15.5466042 -0.552895E-08  0.889E-05    2.84     339.1  T
  11    -15.5466042 -0.363194E-10  0.279E-05    2.84    1081.8  T

   *** convergence criteria satisfied after 11 iterations ***

         #    Occupation            Energy/Eh            Energy/eV
      -------------------------------------------------------------
         1        2.0000           -0.6425482             -17.4846
       ...           ...                  ...                  ...
         9        2.0000           -0.4798030             -13.0561
        10        2.0000           -0.4748284             -12.9207
        11        2.0000           -0.4550171             -12.3816
        12        2.0000           -0.4246239             -11.5546
        13        2.0000           -0.4059965             -11.0477
        14        2.0000           -0.4010825             -10.9140
        15        1.0000           -0.3332969              -9.0695 (HOMO)
        16                         -0.2289899              -6.2311 (LUMO)
        17                         -0.2243194              -6.1040
        18                         -0.0993985              -2.7048
        19                          0.0963671               2.6223
        20                          0.1158839               3.1534
       ...                                ...                  ...
        29                          0.6009438              16.3525
      -------------------------------------------------------------
                  HL-Gap            0.1043069 Eh            2.8383 eV
             Fermi-level           -0.3241666 Eh           -8.8210 eV

 SCC (total)                   0 d,  0 h,  0 min,  2.601 sec
 SCC setup                      ...        0 min,  0.007 sec (  0.274%)
 Dispersion                     ...        0 min,  0.026 sec (  1.018%)
 classical contributions        ...        0 min,  0.007 sec (  0.283%)
 integral evaluation            ...        0 min,  0.026 sec (  1.019%)
 iterations                     ...        0 min,  2.169 sec ( 83.394%)
 molecular gradient             ...        0 min,  0.364 sec ( 14.001%)
 printout                       ...        0 min,  0.000 sec (  0.007%)

         :::::::::::::::::::::::::::::::::::::::::::::::::::::
         ::                     SUMMARY                     ::
         :::::::::::::::::::::::::::::::::::::::::::::::::::::
         :: total energy             -15.273597649851 Eh    ::
         :: total w/o Gsasa/hb       -15.267215997450 Eh    ::
         :: gradient norm              0.058495386097 Eh/a0 ::
         :: HOMO-LUMO gap              2.838336526054 eV    ::
         ::.................................................::
         :: SCC energy               -15.546604188684 Eh    ::
         :: -> isotropic ES            0.000622194213 Eh    ::
         :: -> anisotropic ES          0.002074507259 Eh    ::
         :: -> anisotropic XC          0.012454671238 Eh    ::
         :: -> dispersion             -0.007335100987 Eh    ::
         :: -> Gsolv                  -0.006628440227 Eh    ::
         ::    -> Gelec               -0.000246787827 Eh    ::
         ::    -> Gsasa               -0.010530349762 Eh    ::
         ::    -> Ghb                  0.000000000000 Eh    ::
         ::    -> Gshift               0.004148697361 Eh    ::
         :: repulsion energy           0.273001768515 Eh    ::
         :: add. restraining           0.000000000000 Eh    ::
         :: total charge              -0.000000000000 e     ::
         :::::::::::::::::::::::::::::::::::::::::::::::::::::

      ----------------------------------------------------------- 
     |                   =====================                   |
     |                        A N C O P T                        |
     |                   =====================                   |
     |               Approximate Normal Coordinate               |
     |                Rational Function Optimizer                |
      ----------------------------------------------------------- 

          ...................................................
          :                      SETUP                      :
          :.................................................:
          :   optimization level             tight          :
          :   max. optcycles                   200          :
          :   ANC micro-cycles                  20          :
          :   degrees of freedom                27          :
          :.................................................:
          :   RF solver                   davidson          :
          :   write xtbopt.log                true          :
          :   linear?                        false          :
          :   energy convergence         0.1000000E-05 Eh   :
          :   grad. convergence          0.8000000E-03 Eh/α :
          :   maximium RF displ.         1.0000000          :
          :   Hlow (freq-cutoff)         0.1000000E-01      :
          :   Hmax (freq-cutoff)         5.0000000          :
          :   S6 in model hess.         20.0000000          :
          ...................................................

generating ANC from model Hessian ...
Using Lindh-Hessian (1995)
 Shifting diagonal of input Hessian by    0.0000000000000000     
 Lowest  eigenvalues of input Hessian
    0.000000    0.000000    0.000000    0.000000    0.000000    0.000000
    0.012234    0.016580    0.020080    0.044690    0.050731    0.085676
    0.088092    0.090395    0.093119    0.102216    0.113962    0.117717
 Highest eigenvalues
    1.252427    1.446273    1.449829    1.806368    1.869107    1.883375


........................................................................
.............................. CYCLE    1 ..............................
........................................................................
   1    -15.5466042 -0.155466E+02  0.932E-06    2.84       0.0  T
   2    -15.5466042 -0.415668E-12  0.589E-06    2.84    5120.4  T
   3    -15.5466042 -0.321521E-12  0.274E-06    2.84   11011.4  T
     SCC iter.                  ...        0 min,  0.638 sec
     gradient                   ...        0 min,  0.223 sec
 * total energy  :   -15.2735976 Eh     change       -0.3581135E-11 Eh
   gradient norm :     0.0584936 Eh/α   predicted     0.0000000E+00 (-100.00%)
   displ. norm   :     0.1248992 α      lambda       -0.5630340E-02
   maximum displ.:     0.0941204 α      in ANC's #16, #15, #19, ...

........................................................................
.............................. CYCLE    2 ..............................
........................................................................
   1    -15.5758523 -0.155759E+02  0.243E-01    2.69       0.0  T
   2    -15.5758586 -0.626156E-05  0.145E-01    2.67       1.0  T
   3    -15.5758421  0.164944E-04  0.502E-02    2.70       1.0  T
   4    -15.5758623 -0.202076E-04  0.729E-03    2.68       4.1  T
   5    -15.5758623 -0.454643E-07  0.492E-03    2.68       6.1  T
   6    -15.5758624 -0.641463E-07  0.127E-03    2.68      23.7  T
   7    -15.5758624 -0.157100E-08  0.179E-04    2.68     168.6  T
   8    -15.5758624 -0.133872E-09  0.970E-05    2.68     310.9  T
     SCC iter.                  ...        0 min,  0.845 sec
     gradient                   ...        0 min,  0.052 sec
 * total energy  :   -15.2771912 Eh     change       -0.3593560E-02 Eh
   gradient norm :     0.0235450 Eh/α   predicted    -0.2859085E-02 ( -20.44%)
   displ. norm   :     0.0502074 α      lambda       -0.8103336E-03
   maximum displ.:     0.0346478 α      in ANC's #16, #13, #15, ...

........................................................................
.............................. CYCLE    3 ..............................
........................................................................
   1    -15.5838211 -0.155838E+02  0.127E-01    2.55       0.0  T
   2    -15.5838223 -0.118061E-05  0.758E-02    2.55       1.0  T
   3    -15.5838203  0.199797E-05  0.182E-02    2.56       1.7  T
   4    -15.5838228 -0.248559E-05  0.317E-03    2.56       9.5  T
   5    -15.5838228 -0.420543E-08  0.187E-03    2.56      16.1  T
   6    -15.5838228 -0.101909E-07  0.775E-04    2.56      38.9  T
   7    -15.5838228 -0.708804E-09  0.712E-05    2.56     423.3  T
     SCC iter.                  ...        0 min,  0.661 sec
     gradient                   ...        0 min,  0.080 sec
 * total energy  :   -15.2776260 Eh     change       -0.4348327E-03 Eh
   gradient norm :     0.0053128 Eh/α   predicted    -0.4061866E-03 (  -6.59%)
   displ. norm   :     0.0114230 α      lambda       -0.3750385E-04
   maximum displ.:     0.0072620 α      in ANC's #13, #15, #9, ...

........................................................................
.............................. CYCLE    4 ..............................
........................................................................
   1    -15.5827127 -0.155827E+02  0.262E-02    2.53       0.0  T
   2    -15.5827128 -0.229266E-07  0.156E-02    2.53       1.9  T
   3    -15.5827127  0.163227E-07  0.165E-03    2.53      18.2  T
   4    -15.5827128 -0.239208E-07  0.464E-04    2.53      64.9  T
   5    -15.5827128 -0.225162E-09  0.209E-04    2.53     144.4  T
     SCC iter.                  ...        0 min,  0.555 sec
     gradient                   ...        0 min,  0.044 sec
 * total energy  :   -15.2776495 Eh     change       -0.2344645E-04 Eh
   gradient norm :     0.0014722 Eh/α   predicted    -0.1875380E-04 ( -20.01%)
   displ. norm   :     0.0064981 α      lambda       -0.4039090E-05
   maximum displ.:     0.0034694 α      in ANC's #9, #15, #13, ...

........................................................................
.............................. CYCLE    5 ..............................
........................................................................
   1    -15.5818531 -0.155819E+02  0.123E-02    2.52       0.0  T
   2    -15.5818531 -0.121649E-07  0.736E-03    2.52       4.1  T
   3    -15.5818531  0.181153E-07  0.158E-03    2.52      19.1  T
   4    -15.5818531 -0.228965E-07  0.195E-04    2.52     154.7  T
   5    -15.5818531  0.944311E-11  0.129E-04    2.52     233.8  T
     SCC iter.                  ...        0 min,  0.488 sec
     gradient                   ...        0 min,  0.039 sec
 * total energy  :   -15.2776512 Eh     change       -0.1727308E-05 Eh
   gradient norm :     0.0006362 Eh/α   predicted    -0.2019404E-05 (  16.91%)
   displ. norm   :     0.0021207 α      lambda       -0.5780058E-06
   maximum displ.:     0.0012669 α      in ANC's #15, #13, #6, ...

........................................................................
.............................. CYCLE    6 ..............................
........................................................................
   1    -15.5821373 -0.155821E+02  0.406E-03    2.52       0.0  T
   2    -15.5821373 -0.872511E-09  0.243E-03    2.52      12.4  T
   3    -15.5821373  0.119026E-08  0.387E-04    2.52      77.9  T
   4    -15.5821373 -0.153418E-08  0.736E-05    2.52     409.8  T
     SCC iter.                  ...        0 min,  0.332 sec
     gradient                   ...        0 min,  0.015 sec
 * total energy  :   -15.2776517 Eh     change       -0.4362276E-06 Eh
   gradient norm :     0.0000509 Eh/α   predicted    -0.2902253E-06 ( -33.47%)
   displ. norm   :     0.0004975 α      lambda       -0.7954892E-08
   maximum displ.:     0.0002613 α      in ANC's #11, #5, #1, ...

   *** GEOMETRY OPTIMIZATION CONVERGED AFTER 6 ITERATIONS ***

------------------------------------------------------------------------
 total energy gain   :        -0.0040540 Eh       -2.5439 kcal/mol
 total RMSD          :         0.0498285 a0        0.0264 Å
 total power (kW/mol):        -1.7739637 (step)   -2.2565 (real)
------------------------------------------------------------------------

 ANCopt (total)                0 d,  0 h,  0 min,  4.717 sec
 optimizer setup                ...        0 min,  0.001 sec (  0.014%)
 model hessian                  ...        0 min,  0.012 sec (  0.248%)
 ANC generation                 ...        0 min,  0.001 sec (  0.017%)
 coordinate transformation      ...        0 min,  0.000 sec (  0.001%)
 single point calculation       ...        0 min,  4.625 sec ( 98.055%)
 optimization log               ...        0 min,  0.001 sec (  0.022%)
 hessian update                 ...        0 min,  0.076 sec (  1.606%)
 rational function              ...        0 min,  0.001 sec (  0.023%)

================
 final structure:
================
11
 xtb: 6.5.1 (b24c23e)
C            0.42511486584648        2.78773812069515       -0.00108983108332
C           -0.92892679801320        0.44273258586869        0.00010267917836
C            0.45533186540216        0.43257789708054        0.00050021391657
C            1.15771467272578        1.63738905737080       -0.00004820178933
C           -0.93741988648536        2.84713499291310       -0.00157995454398
C           -1.62971546559856        1.63648812057292       -0.00091388211812
H           -1.46955623553692       -0.49359894495795        0.00051086676442
H            0.99900576440847       -0.50189948644285        0.00129346713231
H            2.23780153134769        1.64283600782984        0.00017312114135
H           -1.47274055882277        3.78524219068971       -0.00230316929178
H           -2.71082611527376        1.64024439838004       -0.00129830930648

 Bond Distances (Angstroems)
 ---------------------------
C1-C4=1.3638         C1-C5=1.3638         C2-C3=1.3843         C2-C6=1.3843         C2-H7=1.0812         C3-C2=1.3843         
C3-C4=1.3946         C3-H8=1.0811         C4-C1=1.3638         C4-C3=1.3946         C4-H9=1.0801         C5-C1=1.3638         
C5-C6=1.3946         C5-H10=1.0801        C6-C2=1.3843         C6-C5=1.3946         C6-H11=1.0811        H7-C2=1.0812         
H8-C3=1.0811         H9-C4=1.0801         H10-C5=1.0801        H11-C6=1.0811        
 C  H  Rav=1.0807 sigma=0.0005  Rmin=1.0801  Rmax=1.0812     5
 C  C  Rav=1.3809 sigma=0.0128  Rmin=1.3638  Rmax=1.3946     6

 selected bond angles (degree)
 --------------------
C5-C1-C4=124.99                C6-C2-C3=120.84                H7-C2-C3=119.58                H7-C2-C6=119.58                
C4-C3-C2=119.82                H8-C3-C2=120.61                H8-C3-C4=119.57                C3-C4-C1=117.27                
H9-C4-C1=122.20                H9-C4-C3=120.53                C6-C5-C1=117.27                H10-C5-C1=122.21               
H10-C5-C6=120.53               C5-C6-C2=119.82                H11-C6-C2=120.61               H11-C6-C5=119.56               

 selected dihedral angles (degree)
 ---------------------------------
C4-C3-C2-C6=  0.00            C4-C3-C2-H7=180.00            H8-C3-C2-C6=180.00            H8-C3-C2-H7=  0.00            
C3-C4-C1-C5=  0.00            H9-C4-C1-C5=179.99            C1-C4-C3-C2=  0.00            C1-C4-C3-H8=180.00            
H9-C4-C3-C2=180.00            H9-C4-C3-H8=  0.00            C6-C5-C1-C4=  0.00            H10-C5-C1-C4=179.99           
C5-C6-C2-C3=  0.00            C5-C6-C2-H7=180.01            H11-C6-C2-C3=180.00           H11-C6-C2-H7=  0.00           
C2-C6-C5-C1=  0.00            C2-C6-C5-H10=180.00           H11-C6-C5-C1=180.00           H11-C6-C5-H10=  0.00          
           -------------------------------------------------
          |                Final Singlepoint                |
           -------------------------------------------------

          ...................................................
          :                      SETUP                      :
          :.................................................:
          :  # basis functions                  29          :
          :  # atomic orbitals                  29          :
          :  # shells                           17          :
          :  # electrons                        29          :
          :  max. iterations                   250          :
          :  Hamiltonian                  GFN2-xTB          :
          :  restarted?                      false          :
          :  GBSA solvation                   true          :
          :  PC potential                    false          :
          :  electronic temp.          300.0000000     K    :
          :  accuracy                    1.0000000          :
          :  -> integral cutoff          0.2500000E+02      :
          :  -> integral neglect         0.1000000E-07      :
          :  -> SCF convergence          0.1000000E-05 Eh   :
          :  -> wf. convergence          0.1000000E-03 e    :
          :  Broyden damping             0.4000000          :
          ...................................................

 iter      E             dE          RMSdq      gap      omega  full diag
   1    -15.5821373 -0.155821E+02  0.367E-05    2.52       0.0  T
   2    -15.5821373 -0.340350E-11  0.255E-05    2.52    1183.1  T
   3    -15.5821373 -0.290790E-11  0.121E-05    2.52    2488.1  T

   *** convergence criteria satisfied after 3 iterations ***

         #    Occupation            Energy/Eh            Energy/eV
      -------------------------------------------------------------
         1        2.0000           -0.6452297             -17.5576
       ...           ...                  ...                  ...
         9        2.0000           -0.4813257             -13.0975
        10        2.0000           -0.4775624             -12.9951
        11        2.0000           -0.4545118             -12.3679
        12        2.0000           -0.4272424             -11.6259
        13        2.0000           -0.4061200             -11.0511
        14        2.0000           -0.4032112             -10.9719
        15        1.0000           -0.3214141              -8.7461 (HOMO)
        16                         -0.2287680              -6.2251 (LUMO)
        17                         -0.2159245              -5.8756
        18                         -0.0890590              -2.4234
        19                          0.1207539               3.2859
        20                          0.1413423               3.8461
       ...                                ...                  ...
        29                          0.6552762              17.8310
      -------------------------------------------------------------
                  HL-Gap            0.0926461 Eh            2.5210 eV
             Fermi-level           -0.3187018 Eh           -8.6723 eV

 SCC (total)                   0 d,  0 h,  0 min,  0.264 sec
 SCC setup                      ...        0 min,  0.000 sec (  0.057%)
 Dispersion                     ...        0 min,  0.000 sec (  0.018%)
 classical contributions        ...        0 min,  0.000 sec (  0.007%)
 integral evaluation            ...        0 min,  0.000 sec (  0.150%)
 iterations                     ...        0 min,  0.245 sec ( 92.572%)
 molecular gradient             ...        0 min,  0.019 sec (  7.127%)
 printout                       ...        0 min,  0.000 sec (  0.052%)

         :::::::::::::::::::::::::::::::::::::::::::::::::::::
         ::                     SUMMARY                     ::
         :::::::::::::::::::::::::::::::::::::::::::::::::::::
         :: total energy             -15.277651652330 Eh    ::
         :: total w/o Gsasa/hb       -15.271402109946 Eh    ::
         :: gradient norm              0.000051048451 Eh/a0 ::
         :: HOMO-LUMO gap              2.521028782564 eV    ::
         ::.................................................::
         :: SCC energy               -15.582137288533 Eh    ::
         :: -> isotropic ES            0.000982904044 Eh    ::
         :: -> anisotropic ES          0.001649268672 Eh    ::
         :: -> anisotropic XC          0.011804687653 Eh    ::
         :: -> dispersion             -0.007365871920 Eh    ::
         :: -> Gsolv                  -0.006480433757 Eh    ::
         ::    -> Gelec               -0.000230891372 Eh    ::
         ::    -> Gsasa               -0.010398239746 Eh    ::
         ::    -> Ghb                  0.000000000000 Eh    ::
         ::    -> Gshift               0.004148697361 Eh    ::
         :: repulsion energy           0.304481151374 Eh    ::
         :: add. restraining           0.000000000000 Eh    ::
         :: total charge               0.000000000000 e     ::
         :::::::::::::::::::::::::::::::::::::::::::::::::::::

           -------------------------------------------------
          |                Property Printout                |
           -------------------------------------------------

    * Orbital Energies and Occupations

         #    Occupation            Energy/Eh            Energy/eV
      -------------------------------------------------------------
         1        2.0000           -0.6452297             -17.5576
       ...           ...                  ...                  ...
         3        2.0000           -0.6112204             -16.6322
         4        2.0000           -0.5717609             -15.5584
         5        2.0000           -0.5658624             -15.3979
         6        2.0000           -0.5283451             -14.3770
         7        2.0000           -0.4933696             -13.4253
         8        2.0000           -0.4911802             -13.3657
         9        2.0000           -0.4813257             -13.0975
        10        2.0000           -0.4775624             -12.9951
        11        2.0000           -0.4545118             -12.3679
        12        2.0000           -0.4272424             -11.6259
        13        2.0000           -0.4061200             -11.0511
        14        2.0000           -0.4032112             -10.9719
        15        1.0000           -0.3214141              -8.7461 (HOMO)
        16                         -0.2287680              -6.2251 (LUMO)
        17                         -0.2159245              -5.8756
        18                         -0.0890590              -2.4234
        19                          0.1207539               3.2859
        20                          0.1413423               3.8461
        21                          0.1750281               4.7628
        22                          0.1863727               5.0715
        23                          0.2006590               5.4602
        24                          0.3776265              10.2757
        25                          0.4042721              11.0008
        26                          0.4224448              11.4953
       ...                                ...                  ...
        29                          0.6552762              17.8310
      -------------------------------------------------------------
                  HL-Gap            0.0926461 Eh            2.5210 eV
             Fermi-level           -0.3187018 Eh           -8.6723 eV

     #   Z          covCN         q      C6AA      α(0)
     1   6 C        2.019    -0.070    32.905     9.264
     2   6 C        2.918    -0.036    28.890     8.814
     3   6 C        2.930    -0.027    28.681     8.783
     4   6 C        2.915    -0.020    28.516     8.757
     5   6 C        2.915    -0.020    28.516     8.757
     6   6 C        2.930    -0.027    28.681     8.783
     7   1 H        0.926     0.038     2.480     2.463
     8   1 H        0.926     0.039     2.466     2.456
     9   1 H        0.926     0.043     2.413     2.429
    10   1 H        0.926     0.043     2.413     2.429
    11   1 H        0.926     0.039     2.466     2.456

 Mol. C6AA /au·bohr⁶  :       1625.390957
 Mol. C8AA /au·bohr⁸  :      40786.980378
 Mol. α(0) /au        :         65.389485


Wiberg/Mayer (AO) data.
largest (>0.10) Wiberg bond orders for each atom

 ---------------------------------------------------------------------------
     #   Z sym  total        # sym  WBO       # sym  WBO       # sym  WBO
 ---------------------------------------------------------------------------
     1   6 C    3.103 --     5 C    1.471     4 C    1.471     2 C    0.108
     2   6 C    3.991 --     6 C    1.447     3 C    1.447     7 H    0.963
                             1 C    0.108
     3   6 C    3.935 --     2 C    1.447     4 C    1.383     8 H    0.963
                             5 C    0.118
     4   6 C    3.956 --     1 C    1.471     3 C    1.383     9 H    0.959
                             6 C    0.117
     5   6 C    3.956 --     1 C    1.471     6 C    1.383    10 H    0.959
                             3 C    0.118
     6   6 C    3.935 --     2 C    1.447     5 C    1.383    11 H    0.963
                             4 C    0.117
     7   1 H    0.990 --     2 C    0.963
     8   1 H    0.988 --     3 C    0.963
     9   1 H    0.985 --     4 C    0.959
    10   1 H    0.985 --     5 C    0.959
    11   1 H    0.988 --     6 C    0.963
 ---------------------------------------------------------------------------

Topologies differ in total number of bonds
Writing topology from bond orders to xtbtopo.mol

molecular dipole:
                 x           y           z       tot (Debye)
 q only:       -0.109      -0.189       0.000
   full:       -0.195      -0.337       0.000       0.990
molecular quadrupole (traceless):
                xx          xy          yy          xz          yz          zz
 q only:        1.936      -1.232      -0.956       0.001      -0.001      -0.980
  q+dip:        5.004      -2.788      -0.829       0.004      -0.004      -4.176
   full:        3.440      -2.341      -1.877       0.003      -0.001      -1.564

           -------------------------------------------------
          |                Geometry Summary                 |
           -------------------------------------------------

      molecular mass/u    :       77.1041192
   center of mass at/Å    :       -0.2586887       1.6034789      -0.0004931
  moments of inertia/u·Å² :        0.7957760E+02   0.8846254E+02   0.1680401E+03
rotational constants/cm⁻¹ :        0.2118389E+00   0.1905624E+00   0.1003191E+00

 * 11 selected distances

     #   Z          #   Z                                           value/Å
     2   6 C        3   6 C                                       1.3842961
     1   6 C        4   6 C                                       1.3638207
     3   6 C        4   6 C                                       1.3946011
     1   6 C        5   6 C                                       1.3638290
     2   6 C        6   6 C                                       1.3842537
     5   6 C        6   6 C                                       1.3946110 (max)
     2   6 C        7   1 H                                       1.0812018
     3   6 C        8   1 H                                       1.0811245
     4   6 C        9   1 H                                       1.0801007
     5   6 C       10   1 H                                       1.0800991 (min)
     6   6 C       11   1 H                                       1.0811173

 * 2 distinct bonds (by element types)

   Z      Z             #   av. dist./Å        max./Å        min./Å
   1 H    6 C           5     1.0807287     1.0812018     1.0800991
   6 C    6 C           6     1.3809019     1.3946110     1.3638207


optimized geometry written to: xtbopt.xyz


           -------------------------------------------------
          | TOTAL ENERGY              -15.277651652330 Eh   |
          | GRADIENT NORM               0.000051048451 Eh/α |
          | HOMO-LUMO GAP               2.521028782564 eV   |
           -------------------------------------------------

------------------------------------------------------------------------
 * finished run on 2022/11/14 at 22:12:07.450     
------------------------------------------------------------------------
 total:
 * wall-time:     0 d,  0 h,  0 min,  7.745 sec
 *  cpu-time:     0 d,  0 h,  0 min, 39.297 sec
 * ratio c/w:     5.074 speedup
 SCF:
 * wall-time:     0 d,  0 h,  0 min,  2.601 sec
 *  cpu-time:     0 d,  0 h,  0 min,  9.703 sec
 * ratio c/w:     3.731 speedup
 ANC optimizer:
 * wall-time:     0 d,  0 h,  0 min,  5.018 sec
 *  cpu-time:     0 d,  0 h,  0 min, 28.734 sec
 * ratio c/w:     5.726 speedup

