      -----------------------------------------------------------      
     |                   =====================                   |     
     |                           x T B                           |     
     |                   =====================                   |     
     |                         S. Grimme                         |     
     |          Mulliken Center for Theoretical Chemistry        |     
     |                    University of Bonn                     |     
      -----------------------------------------------------------      

   * xtb version 6.5.1 (b24c23e) compiled by 'conda@728c89f4b128' on 2022-07-12

   xtb is free software: you can redistribute it and/or modify it under
   the terms of the GNU Lesser General Public License as published by
   the Free Software Foundation, either version 3 of the License, or
   (at your option) any later version.
   
   xtb is distributed in the hope that it will be useful,
   but WITHOUT ANY WARRANTY; without even the implied warranty of
   MERCHANTABILITY or FITNESS FOR A PARTICULAR PURPOSE.  See the
   GNU Lesser General Public License for more details.
   
   Cite this work as:
   * C. Bannwarth, E. Caldeweyher, S. Ehlert, A. Hansen, P. Pracht,
     J. Seibert, S. Spicher, S. Grimme, WIREs Comput. Mol. Sci., 2020, 11,
     e01493. DOI: 10.1002/wcms.1493
   
   for GFN2-xTB:
   * C. Bannwarth, S. Ehlert and S. Grimme., J. Chem. Theory Comput., 2019,
     15, 1652-1671. DOI: 10.1021/acs.jctc.8b01176
   for GFN1-xTB:
   * S. Grimme, C. Bannwarth, P. Shushkov, J. Chem. Theory Comput., 2017,
     13, 1989-2009. DOI: 10.1021/acs.jctc.7b00118
   for GFN0-xTB:
   * P. Pracht, E. Caldeweyher, S. Ehlert, S. Grimme, ChemRxiv, 2019, preprint.
     DOI: 10.26434/chemrxiv.8326202.v1
   for GFN-FF:
   * S. Spicher and S. Grimme, Angew. Chem. Int. Ed., 2020, 59, 15665-15673.
     DOI: 10.1002/anie.202004239
   
   for ALPB and GBSA implicit solvation:
   * S. Ehlert, M. Stahn, S. Spicher, S. Grimme, J. Chem. Theory Comput.,
     2021, 17, 4250-4261. DOI: 10.1021/acs.jctc.1c00471
   
   for DFT-D4:
   * E. Caldeweyher, C. Bannwarth and S. Grimme, J. Chem. Phys., 2017,
     147, 034112. DOI: 10.1063/1.4993215
   * E. Caldeweyher, S. Ehlert, A. Hansen, H. Neugebauer, S. Spicher,
     C. Bannwarth and S. Grimme, J. Chem. Phys., 2019, 150, 154122.
     DOI: 10.1063/1.5090222
   * E. Caldeweyher, J.-M. Mewes, S. Ehlert and S. Grimme, Phys. Chem. Chem. Phys.
     2020, 22, 8499-8512. DOI: 10.1039/D0CP00502A
   
   for sTDA-xTB:
   * S. Grimme and C. Bannwarth, J. Chem. Phys., 2016, 145, 054103.
     DOI: 10.1063/1.4959605
   
   in the mass-spec context:
   * V. Asgeirsson, C. Bauer and S. Grimme, Chem. Sci., 2017, 8, 4879.
     DOI: 10.1039/c7sc00601b
   * J. Koopman and S. Grimme, ACS Omega 2019, 4, 12, 15120-15133.
     DOI: 10.1021/acsomega.9b02011
   
   for metadynamics refer to:
   * S. Grimme, J. Chem. Theory Comput., 2019, 155, 2847-2862
     DOI: 10.1021/acs.jctc.9b00143
   
   for SPH calculations refer to:
   * S. Spicher and S. Grimme, J. Chem. Theory Comput., 2021, 17, 1701-1714
     DOI: 10.1021/acs.jctc.0c01306
   
   with help from (in alphabetical order)
   P. Atkinson, C. Bannwarth, F. Bohle, G. Brandenburg, E. Caldeweyher
   M. Checinski, S. Dohm, S. Ehlert, S. Ehrlich, I. Gerasimov, C. Hölzer
   A. Katbashev, J. Koopman, C. Lavigne, S. Lehtola, F. März, M. Müller,
   F. Musil, H. Neugebauer, J. Pisarek, C. Plett, P. Pracht, F. Pultar,
   J. Seibert, P. Shushkov, S. Spicher, M. Stahn, M. Steiner, T. Strunk,
   J. Stückrath, T. Rose, and J. Unsleber
   
 * started run on 2022/11/14 at 22:12:07.536     

           -------------------------------------------------
          |                Calculation Setup                |
           -------------------------------------------------

          program call               : xtb CCH3CH3CH3.xyz --gfn2 --chrg 0 --uhf 1 --alpb ch2cl2 --opt 1
          coordinate file            : CCH3CH3CH3.xyz
          omp threads                :                     8

   ID    Z sym.   atoms
    1    6 C      1, 2, 6, 10
    2    1 H      3-5, 7-9, 11-13

           -------------------------------------------------
          |                 G F N 2 - x T B                 |
           -------------------------------------------------

        Reference                      10.1021/acs.jctc.8b01176
      * Hamiltonian:
        H0-scaling (s, p, d)           1.850000    2.230000    2.230000
        zeta-weighting                 0.500000
      * Dispersion:
        s8                             2.700000
        a1                             0.520000
        a2                             5.000000
        s9                             5.000000
      * Repulsion:
        kExp                           1.500000    1.000000
        rExp                           1.000000
      * Coulomb:
        alpha                          2.000000
        third order                    shell-resolved
        anisotropic                    true
        a3                             3.000000
        a5                             4.000000
        cn-shift                       1.200000
        cn-exp                         4.000000
        max-rad                        5.000000

      * Solvation model:               ALPB
        Solvent                        ch2cl2
        Parameter file                 internal GFN2-xTB/ALPB
        Dielectric constant                8.9300E+00
        Reference state                gsolv [1 M gas/solution]
        Free energy shift                  4.1487E-03 Eh       2.6033E+00 kcal/mol
        Temperature                        2.9815E+02 K
        Density                            1.3300E+00 kg/L
        Solvent mass                       8.4930E+01 g/mol
        Interaction kernel             P16
        Born radius scaling (c1)           1.5691E+00
        Born radii integrator          GBOBC
        Born offset                        0.0000E+00 a0       0.0000E+00 AA
        H-bond correction              false
        Ion screening                  false
        Surface tension                    1.0000E-05 Eh       1.5569E+01 dyn/cm
        Grid points                               230 per atom

          ...................................................
          :                      SETUP                      :
          :.................................................:
          :  # basis functions                  25          :
          :  # atomic orbitals                  25          :
          :  # shells                           17          :
          :  # electrons                        25          :
          :  max. iterations                   250          :
          :  Hamiltonian                  GFN2-xTB          :
          :  restarted?                      false          :
          :  GBSA solvation                   true          :
          :  PC potential                    false          :
          :  electronic temp.          300.0000000     K    :
          :  accuracy                    1.0000000          :
          :  -> integral cutoff          0.2500000E+02      :
          :  -> integral neglect         0.1000000E-07      :
          :  -> SCF convergence          0.1000000E-05 Eh   :
          :  -> wf. convergence          0.1000000E-03 e    :
          :  Broyden damping             0.4000000          :
          ...................................................

 iter      E             dE          RMSdq      gap      omega  full diag
   1    -13.2634574 -0.132635E+02  0.247E+00   11.23       0.0  T
   2    -13.2827657 -0.193083E-01  0.125E+00   11.35       1.0  T
   3    -13.2833899 -0.624226E-03  0.538E-01   11.40       1.0  T
   4    -13.2834748 -0.848726E-04  0.804E-02   11.41       1.0  T
   5    -13.2834738  0.101816E-05  0.197E-02   11.41       1.4  T
   6    -13.2834755 -0.171909E-05  0.364E-03   11.40       7.6  T
   7    -13.2834755 -0.450924E-07  0.147E-03   11.40      18.9  T
   8    -13.2834755 -0.358476E-08  0.258E-04   11.40     107.6  T
   9    -13.2834755  0.324700E-10  0.140E-04   11.40     198.7  T

   *** convergence criteria satisfied after 9 iterations ***

         #    Occupation            Energy/Eh            Energy/eV
      -------------------------------------------------------------
         1        2.0000           -0.6131079             -16.6835
       ...           ...                  ...                  ...
         7        2.0000           -0.4886691             -13.2974
         8        2.0000           -0.4618378             -12.5672
         9        2.0000           -0.4614172             -12.5558
        10        2.0000           -0.4488131             -12.2128
        11        2.0000           -0.4242239             -11.5437
        12        2.0000           -0.4240679             -11.5395
        13        1.0000           -0.3111698              -8.4674 (HOMO)
        14                          0.1079312               2.9370 (LUMO)
        15                          0.1144466               3.1143
        16                          0.1146149               3.1188
        17                          0.1744441               4.7469
        18                          0.2315253               6.3001
       ...                                ...                  ...
        25                          0.2900930               7.8938
      -------------------------------------------------------------
                  HL-Gap            0.4191010 Eh           11.4043 eV
             Fermi-level           -0.2346191 Eh           -6.3843 eV

 SCC (total)                   0 d,  0 h,  0 min,  1.506 sec
 SCC setup                      ...        0 min,  0.007 sec (  0.478%)
 Dispersion                     ...        0 min,  0.033 sec (  2.179%)
 classical contributions        ...        0 min,  0.003 sec (  0.192%)
 integral evaluation            ...        0 min,  0.010 sec (  0.663%)
 iterations                     ...        0 min,  1.158 sec ( 76.891%)
 molecular gradient             ...        0 min,  0.295 sec ( 19.578%)
 printout                       ...        0 min,  0.000 sec (  0.014%)

         :::::::::::::::::::::::::::::::::::::::::::::::::::::
         ::                     SUMMARY                     ::
         :::::::::::::::::::::::::::::::::::::::::::::::::::::
         :: total energy             -13.068415548285 Eh    ::
         :: total w/o Gsasa/hb       -13.063096676603 Eh    ::
         :: gradient norm              0.094449625017 Eh/a0 ::
         :: HOMO-LUMO gap             11.404318415790 eV    ::
         ::.................................................::
         :: SCC energy               -13.283475548981 Eh    ::
         :: -> isotropic ES            0.004113986251 Eh    ::
         :: -> anisotropic ES          0.004564278691 Eh    ::
         :: -> anisotropic XC          0.007896113009 Eh    ::
         :: -> dispersion             -0.005864292569 Eh    ::
         :: -> Gsolv                  -0.005491022273 Eh    ::
         ::    -> Gelec               -0.000172150590 Eh    ::
         ::    -> Gsasa               -0.009467569043 Eh    ::
         ::    -> Ghb                  0.000000000000 Eh    ::
         ::    -> Gshift               0.004148697361 Eh    ::
         :: repulsion energy           0.215053640527 Eh    ::
         :: add. restraining           0.000000000000 Eh    ::
         :: total charge               0.000000000000 e     ::
         :::::::::::::::::::::::::::::::::::::::::::::::::::::

      ----------------------------------------------------------- 
     |                   =====================                   |
     |                        A N C O P T                        |
     |                   =====================                   |
     |               Approximate Normal Coordinate               |
     |                Rational Function Optimizer                |
      ----------------------------------------------------------- 

          ...................................................
          :                      SETUP                      :
          :.................................................:
          :   optimization level             tight          :
          :   max. optcycles                   200          :
          :   ANC micro-cycles                  20          :
          :   degrees of freedom                33          :
          :.................................................:
          :   RF solver                   davidson          :
          :   write xtbopt.log                true          :
          :   linear?                        false          :
          :   energy convergence         0.1000000E-05 Eh   :
          :   grad. convergence          0.8000000E-03 Eh/α :
          :   maximium RF displ.         1.0000000          :
          :   Hlow (freq-cutoff)         0.1000000E-01      :
          :   Hmax (freq-cutoff)         5.0000000          :
          :   S6 in model hess.         20.0000000          :
          ...................................................

generating ANC from model Hessian ...
Using Lindh-Hessian (1995)
 Shifting diagonal of input Hessian by    2.8383849529926173E-003
 Lowest  eigenvalues of input Hessian
    0.000000    0.000000    0.000000    0.000000    0.000000    0.000000
    0.010000    0.010009    0.010026    0.014520    0.014566    0.018335
    0.057744    0.062217    0.062219    0.063182    0.064991    0.065013
 Highest eigenvalues
    1.180560    1.185422    1.185442    1.199906    1.230322    1.230331


........................................................................
.............................. CYCLE    1 ..............................
........................................................................
   1    -13.2834755 -0.132835E+02  0.120E-05   11.40       0.0  T
   2    -13.2834755 -0.166267E-11  0.630E-06   11.40    4399.8  T
   3    -13.2834755 -0.259348E-12  0.279E-06   11.40    9949.6  T
     SCC iter.                  ...        0 min,  0.468 sec
     gradient                   ...        0 min,  0.309 sec
 * total energy  :   -13.0684155 Eh     change       -0.2674732E-09 Eh
   gradient norm :     0.0944496 Eh/α   predicted     0.0000000E+00 (-100.00%)
   displ. norm   :     0.4208563 α      lambda       -0.1942642E-01
   maximum displ.:     0.3693177 α      in ANC's #6, #21, #25, ...

........................................................................
.............................. CYCLE    2 ..............................
........................................................................
   1    -13.2821730 -0.132822E+02  0.441E-01   10.30       0.0  T
   2    -13.2823230 -0.150047E-03  0.255E-01   10.25       1.0  T
   3    -13.2823153  0.774077E-05  0.924E-02   10.30       1.0  T
   4    -13.2823412 -0.259406E-04  0.699E-03   10.29       4.0  T
   5    -13.2823412 -0.257138E-07  0.356E-03   10.29       7.8  T
   6    -13.2823412 -0.145578E-08  0.382E-04   10.29      72.6  T
   7    -13.2823412 -0.157188E-09  0.145E-04   10.29     191.8  T
     SCC iter.                  ...        0 min,  0.952 sec
     gradient                   ...        0 min,  0.033 sec
 * total energy  :   -13.0799164 Eh     change       -0.1150082E-01 Eh
   gradient norm :     0.0410555 Eh/α   predicted    -0.1143362E-01 (  -0.58%)
   displ. norm   :     0.3500077 α      lambda       -0.5585790E-02
   maximum displ.:     0.3230998 α      in ANC's #6, #7, #25, ...

........................................................................
.............................. CYCLE    3 ..............................
........................................................................
   1    -13.2799992 -0.132800E+02  0.185E-01   10.46       0.0  T
   2    -13.2800292 -0.299600E-04  0.108E-01   10.46       1.0  T
   3    -13.2800308 -0.162304E-05  0.262E-02   10.47       1.1  T
   4    -13.2800310 -0.215750E-06  0.532E-03   10.47       5.2  T
   5    -13.2800311 -0.397723E-07  0.251E-03   10.47      11.0  T
   6    -13.2800311 -0.873713E-08  0.445E-04   10.47      62.4  T
   7    -13.2800311 -0.394973E-10  0.198E-05   10.47    1401.6  T
     SCC iter.                  ...        0 min,  0.516 sec
     gradient                   ...        0 min,  0.032 sec
 * total energy  :   -13.0838220 Eh     change       -0.3905642E-02 Eh
   gradient norm :     0.0154669 Eh/α   predicted    -0.3135039E-02 ( -19.73%)
   displ. norm   :     0.2964474 α      lambda       -0.2064737E-02
   maximum displ.:     0.2759964 α      in ANC's #6, #7, #22, ...

........................................................................
.............................. CYCLE    4 ..............................
........................................................................
   1    -13.2808308 -0.132808E+02  0.135E-01   10.45       0.0  T
   2    -13.2808370 -0.628352E-05  0.795E-02   10.46       1.0  T
   3    -13.2808379 -0.859374E-06  0.102E-02   10.46       2.7  T
   4    -13.2808379 -0.334105E-07  0.348E-03   10.46       8.0  T
   5    -13.2808379 -0.608285E-08  0.751E-04   10.46      36.9  T
   6    -13.2808380 -0.221460E-08  0.271E-04   10.46     102.2  T
     SCC iter.                  ...        0 min,  0.435 sec
     gradient                   ...        0 min,  0.033 sec
 * total energy  :   -13.0851136 Eh     change       -0.1291631E-02 Eh
   gradient norm :     0.0168985 Eh/α   predicted    -0.1123092E-02 ( -13.05%)
   displ. norm   :     0.1462120 α      lambda       -0.7181336E-03
   maximum displ.:     0.1253553 α      in ANC's #6, #7, #22, ...

........................................................................
.............................. CYCLE    5 ..............................
........................................................................
   1    -13.2844730 -0.132845E+02  0.610E-02   10.44       0.0  T
   2    -13.2844739 -0.924063E-06  0.357E-02   10.44       1.0  T
   3    -13.2844740 -0.135582E-06  0.417E-03   10.44       6.6  T
   4    -13.2844741 -0.307767E-07  0.185E-03   10.44      15.0  T
   5    -13.2844741 -0.319627E-08  0.708E-04   10.44      39.2  T
   6    -13.2844741 -0.247821E-09  0.118E-04   10.44     235.1  T
     SCC iter.                  ...        0 min,  0.424 sec
     gradient                   ...        0 min,  0.124 sec
 * total energy  :   -13.0856674 Eh     change       -0.5537446E-03 Eh
   gradient norm :     0.0131788 Eh/α   predicted    -0.3667431E-03 ( -33.77%)
   displ. norm   :     0.1924630 α      lambda       -0.6815609E-03
   maximum displ.:     0.1693847 α      in ANC's #6, #7, #22, ...

........................................................................
.............................. CYCLE    6 ..............................
........................................................................
   1    -13.2876066 -0.132876E+02  0.690E-02   10.32       0.0  T
   2    -13.2876102 -0.357261E-05  0.407E-02   10.31       1.0  T
   3    -13.2876103 -0.127530E-06  0.823E-03   10.31       3.4  T
   4    -13.2876105 -0.153060E-06  0.244E-03   10.31      11.4  T
   5    -13.2876105 -0.935979E-08  0.108E-03   10.31      25.6  T
   6    -13.2876105 -0.401613E-09  0.125E-04   10.31     221.4  T
   7    -13.2876105 -0.435740E-11  0.468E-06   10.31    5925.5  T
     SCC iter.                  ...        0 min,  0.581 sec
     gradient                   ...        0 min,  0.097 sec
 * total energy  :   -13.0860888 Eh     change       -0.4214238E-03 Eh
   gradient norm :     0.0034919 Eh/α   predicted    -0.3534046E-03 ( -16.14%)
   displ. norm   :     0.0702254 α      lambda       -0.7543927E-04
   maximum displ.:     0.0563494 α      in ANC's #6, #7, #22, ...

........................................................................
.............................. CYCLE    7 ..............................
........................................................................
   1    -13.2887685 -0.132888E+02  0.267E-02   10.30       0.0  T
   2    -13.2887687 -0.252861E-06  0.156E-02   10.30       1.8  T
   3    -13.2887687 -0.285739E-07  0.231E-03   10.30      12.0  T
   4    -13.2887687 -0.809184E-08  0.853E-04   10.30      32.5  T
   5    -13.2887687 -0.953868E-09  0.322E-04   10.30      86.1  T
     SCC iter.                  ...        0 min,  0.323 sec
     gradient                   ...        0 min,  0.039 sec
 * total energy  :   -13.0861328 Eh     change       -0.4394220E-04 Eh
   gradient norm :     0.0006409 Eh/α   predicted    -0.3790662E-04 ( -13.74%)
   displ. norm   :     0.0440311 α      lambda       -0.6162349E-05
   maximum displ.:     0.0398031 α      in ANC's #6, #7, #22, ...

........................................................................
.............................. CYCLE    8 ..............................
........................................................................
   1    -13.2887526 -0.132888E+02  0.147E-02   10.27       0.0  T
   2    -13.2887526 -0.668418E-07  0.880E-03   10.27       3.2  T
   3    -13.2887526 -0.122975E-07  0.127E-03   10.27      21.9  T
   4    -13.2887526 -0.494810E-08  0.595E-04   10.27      46.6  T
   5    -13.2887526 -0.302565E-09  0.612E-05   10.27     453.4  T
     SCC iter.                  ...        0 min,  0.414 sec
     gradient                   ...        0 min,  0.037 sec
 * total energy  :   -13.0861351 Eh     change       -0.2363496E-05 Eh
   gradient norm :     0.0004781 Eh/α   predicted    -0.3084900E-05 (  30.52%)
   displ. norm   :     0.0129478 α      lambda       -0.2056026E-05
   maximum displ.:     0.0126186 α      in ANC's #6, #2, #3, ...

........................................................................
.............................. CYCLE    9 ..............................
........................................................................
   1    -13.2892746 -0.132893E+02  0.724E-03   10.29       0.0  T
   2    -13.2892746 -0.148412E-07  0.423E-03   10.29       6.6  T
   3    -13.2892746 -0.196310E-08  0.523E-04   10.29      53.0  T
   4    -13.2892746 -0.572092E-09  0.209E-04   10.29     132.7  T
     SCC iter.                  ...        0 min,  0.172 sec
     gradient                   ...        0 min,  0.001 sec
 * total energy  :   -13.0861361 Eh     change       -0.9711140E-06 Eh
   gradient norm :     0.0004490 Eh/α   predicted    -0.1028466E-05 (   5.91%)
   displ. norm   :     0.0047888 α      lambda       -0.5624584E-06
   maximum displ.:     0.0024919 α      in ANC's #22, #6, #7, ...

   *** GEOMETRY OPTIMIZATION CONVERGED AFTER 9 ITERATIONS ***

------------------------------------------------------------------------
 total energy gain   :        -0.0177205 Eh      -11.1198 kcal/mol
 total RMSD          :         0.3961918 a0        0.2097 Å
 total power (kW/mol):        -5.1694745 (step)   -8.3835 (real)
------------------------------------------------------------------------

 ANCopt (total)                0 d,  0 h,  0 min,  5.550 sec
 optimizer setup                ...        0 min,  0.000 sec (  0.006%)
 model hessian                  ...        0 min,  0.008 sec (  0.148%)
 ANC generation                 ...        0 min,  0.001 sec (  0.011%)
 coordinate transformation      ...        0 min,  0.000 sec (  0.002%)
 single point calculation       ...        0 min,  5.519 sec ( 99.451%)
 optimization log               ...        0 min,  0.002 sec (  0.030%)
 hessian update                 ...        0 min,  0.017 sec (  0.310%)
 rational function              ...        0 min,  0.001 sec (  0.026%)

================
 final structure:
================
13
 xtb: 6.5.1 (b24c23e)
C            1.95421828783205       -2.03326696478026       -0.00074877191128
C            2.08708097776457       -3.51308493905445        0.00052789822171
H            1.62682820757619       -3.94632088261701        0.88830688334697
H            1.62326708580010       -3.94856434104460       -0.88434737940315
H            3.14082569377028       -3.82477607865476       -0.00130345801092
C            2.08564323952557       -1.29216793213045       -1.28190095243495
H            1.65531504494361       -1.85827165722481       -2.10746879728130
H            1.59143520507235       -0.32223231201359       -1.22502900050099
H            3.13834667456098       -1.10210339024706       -1.53329281369785
C            2.08254493420168       -1.29227430354684        1.28089544632863
H            1.62383778610505       -0.30628080917291        1.21018946406223
H            1.61443507693183       -1.84036651819743        2.09836922032548
H            3.13539023591571       -1.13966941131586        1.55627096095538

 Bond Distances (Angstroems)
 ---------------------------
C1-C2=1.4858         C1-C6=1.4859         C1-C10=1.4860        C2-C1=1.4858         C2-H3=1.0898         C2-H4=1.0898         
C2-H5=1.0989         H3-C2=1.0898         H4-C2=1.0898         H5-C2=1.0989         C6-C1=1.4859         C6-H7=1.0896         
C6-H8=1.0901         C6-H9=1.0989         H7-C6=1.0896         H8-C6=1.0901         H9-C6=1.0989         C10-C1=1.4860        
C10-H11=1.0898       C10-H12=1.0899       C10-H13=1.0989       H11-C10=1.0898       H12-C10=1.0899       H13-C10=1.0989       
 C  H  Rav=1.0928 sigma=0.0043  Rmin=1.0896  Rmax=1.0989     9
 C  C  Rav=1.4859 sigma=0.0001  Rmin=1.4858  Rmax=1.4860     3

 selected bond angles (degree)
 --------------------
C6-C1-C2=119.31                C10-C1-C2=119.22               C10-C1-C6=119.16               H3-C2-C1=111.03                
H4-C2-C1=111.05                H4-C2-H3=108.83                H5-C2-C1=111.61                H5-C2-H3=107.07                
H5-C2-H4=107.06                H7-C6-C1=111.05                H8-C6-C1=111.02                H8-C6-H7=108.83                
H9-C6-C1=111.61                H9-C6-H7=107.15                H9-C6-H8=107.00                H11-C10-C1=111.03              
H12-C10-C1=111.04              H12-C10-H11=108.84             H13-C10-C1=111.60              H13-C10-H11=107.09             
H13-C10-H12=107.06             

 selected dihedral angles (degree)
 ---------------------------------
H3-C2-C1-C6=200.50            H3-C2-C1-C10= 37.86           H4-C2-C1-C6=321.74            H4-C2-C1-C10=159.10           
H5-C2-C1-C6= 81.12            H5-C2-C1-C10=278.48           H7-C6-C1-C2= 36.12            H7-C6-C1-C10=198.77           
H8-C6-C1-C2=157.34            H8-C6-C1-C10=319.99           H9-C6-C1-C2=276.62            H9-C6-C1-C10= 79.27           
H11-C10-C1-C2=200.37          H11-C10-C1-C6= 37.71          H12-C10-C1-C2=321.61          H12-C10-C1-C6=158.94          
H13-C10-C1-C2= 80.97          H13-C10-C1-C6=278.31          
           -------------------------------------------------
          |                Final Singlepoint                |
           -------------------------------------------------

          ...................................................
          :                      SETUP                      :
          :.................................................:
          :  # basis functions                  25          :
          :  # atomic orbitals                  25          :
          :  # shells                           17          :
          :  # electrons                        25          :
          :  max. iterations                   250          :
          :  Hamiltonian                  GFN2-xTB          :
          :  restarted?                      false          :
          :  GBSA solvation                   true          :
          :  PC potential                    false          :
          :  electronic temp.          300.0000000     K    :
          :  accuracy                    1.0000000          :
          :  -> integral cutoff          0.2500000E+02      :
          :  -> integral neglect         0.1000000E-07      :
          :  -> SCF convergence          0.1000000E-05 Eh   :
          :  -> wf. convergence          0.1000000E-03 e    :
          :  Broyden damping             0.4000000          :
          ...................................................

 iter      E             dE          RMSdq      gap      omega  full diag
   1    -13.2892746 -0.132893E+02  0.774E-05   10.29       0.0  T
   2    -13.2892746 -0.552980E-11  0.413E-05   10.29     671.7  T
   3    -13.2892746 -0.406786E-12  0.128E-05   10.29    2168.3  T

   *** convergence criteria satisfied after 3 iterations ***

         #    Occupation            Energy/Eh            Energy/eV
      -------------------------------------------------------------
         1        2.0000           -0.6118703             -16.6498
       ...           ...                  ...                  ...
         7        2.0000           -0.4904392             -13.3455
         8        2.0000           -0.4591390             -12.4938
         9        2.0000           -0.4589273             -12.4880
        10        2.0000           -0.4472355             -12.1699
        11        2.0000           -0.4321227             -11.7587
        12        2.0000           -0.4321077             -11.7582
        13        1.0000           -0.2756545              -7.5009 (HOMO)
        14                          0.1024262               2.7872 (LUMO)
        15                          0.1453919               3.9563
        16                          0.1458173               3.9679
        17                          0.1777077               4.8357
        18                          0.1900113               5.1705
       ...                                ...                  ...
        25                          0.3480581               9.4711
      -------------------------------------------------------------
                  HL-Gap            0.3780806 Eh           10.2881 eV
             Fermi-level           -0.2202476 Eh           -5.9932 eV

 SCC (total)                   0 d,  0 h,  0 min,  0.132 sec
 SCC setup                      ...        0 min,  0.000 sec (  0.137%)
 Dispersion                     ...        0 min,  0.000 sec (  0.035%)
 classical contributions        ...        0 min,  0.000 sec (  0.008%)
 integral evaluation            ...        0 min,  0.000 sec (  0.259%)
 iterations                     ...        0 min,  0.124 sec ( 93.497%)
 molecular gradient             ...        0 min,  0.008 sec (  5.907%)
 printout                       ...        0 min,  0.000 sec (  0.129%)

         :::::::::::::::::::::::::::::::::::::::::::::::::::::
         ::                     SUMMARY                     ::
         :::::::::::::::::::::::::::::::::::::::::::::::::::::
         :: total energy             -13.086136088018 Eh    ::
         :: total w/o Gsasa/hb       -13.080636808936 Eh    ::
         :: gradient norm              0.000448344262 Eh/a0 ::
         :: HOMO-LUMO gap             10.288097742261 eV    ::
         ::.................................................::
         :: SCC energy               -13.289274607945 Eh    ::
         :: -> isotropic ES            0.003823060065 Eh    ::
         :: -> anisotropic ES          0.004996821347 Eh    ::
         :: -> anisotropic XC          0.008213729489 Eh    ::
         :: -> dispersion             -0.005787672426 Eh    ::
         :: -> Gsolv                  -0.005628126247 Eh    ::
         ::    -> Gelec               -0.000128847166 Eh    ::
         ::    -> Gsasa               -0.009647976442 Eh    ::
         ::    -> Ghb                  0.000000000000 Eh    ::
         ::    -> Gshift               0.004148697361 Eh    ::
         :: repulsion energy           0.203130596061 Eh    ::
         :: add. restraining           0.000000000000 Eh    ::
         :: total charge               0.000000000000 e     ::
         :::::::::::::::::::::::::::::::::::::::::::::::::::::

           -------------------------------------------------
          |                Property Printout                |
           -------------------------------------------------

    * Orbital Energies and Occupations

         #    Occupation            Energy/Eh            Energy/eV
      -------------------------------------------------------------
         1        2.0000           -0.6118703             -16.6498
         2        2.0000           -0.5838793             -15.8882
         3        2.0000           -0.5838105             -15.8863
         4        2.0000           -0.5308865             -14.4462
         5        2.0000           -0.4926338             -13.4052
         6        2.0000           -0.4905747             -13.3492
         7        2.0000           -0.4904392             -13.3455
         8        2.0000           -0.4591390             -12.4938
         9        2.0000           -0.4589273             -12.4880
        10        2.0000           -0.4472355             -12.1699
        11        2.0000           -0.4321227             -11.7587
        12        2.0000           -0.4321077             -11.7582
        13        1.0000           -0.2756545              -7.5009 (HOMO)
        14                          0.1024262               2.7872 (LUMO)
        15                          0.1453919               3.9563
        16                          0.1458173               3.9679
        17                          0.1777077               4.8357
        18                          0.1900113               5.1705
        19                          0.1901213               5.1735
        20                          0.2160431               5.8788
        21                          0.2161096               5.8806
        22                          0.2340905               6.3699
        23                          0.2508354               6.8256
        24                          0.3471986               9.4478
        25                          0.3480581               9.4711
      -------------------------------------------------------------
                  HL-Gap            0.3780806 Eh           10.2881 eV
             Fermi-level           -0.2202476 Eh           -5.9932 eV

     #   Z          covCN         q      C6AA      α(0)
     1   6 C        2.933    -0.039    28.967     8.827
     2   6 C        3.753    -0.101    22.496     6.764
     3   1 H        0.925     0.037     2.489     2.467
     4   1 H        0.925     0.037     2.489     2.467
     5   1 H        0.923     0.041     2.442     2.444
     6   6 C        3.753    -0.101    22.497     6.764
     7   1 H        0.925     0.037     2.492     2.468
     8   1 H        0.925     0.037     2.487     2.466
     9   1 H        0.923     0.040     2.443     2.444
    10   6 C        3.753    -0.102    22.498     6.764
    11   1 H        0.925     0.037     2.489     2.467
    12   1 H        0.925     0.037     2.489     2.467
    13   1 H        0.923     0.040     2.445     2.445

 Mol. C6AA /au·bohr⁶  :       1136.677765
 Mol. C8AA /au·bohr⁸  :      23853.020934
 Mol. α(0) /au        :         51.254531


Wiberg/Mayer (AO) data.
largest (>0.10) Wiberg bond orders for each atom

 ---------------------------------------------------------------------------
     #   Z sym  total        # sym  WBO       # sym  WBO       # sym  WBO
 ---------------------------------------------------------------------------
     1   6 C    3.178 --     2 C    1.057     6 C    1.057    10 C    1.057
     2   6 C    3.990 --     1 C    1.057     3 H    0.978     4 H    0.978
                             5 H    0.947
     3   1 H    0.990 --     2 C    0.978
     4   1 H    0.990 --     2 C    0.978
     5   1 H    0.951 --     2 C    0.947
     6   6 C    3.990 --     1 C    1.057     7 H    0.979     8 H    0.977
                             9 H    0.947
     7   1 H    0.991 --     6 C    0.979
     8   1 H    0.989 --     6 C    0.977
     9   1 H    0.951 --     6 C    0.947
    10   6 C    3.991 --     1 C    1.057    11 H    0.978    12 H    0.978
                            13 H    0.947
    11   1 H    0.990 --    10 C    0.978
    12   1 H    0.990 --    10 C    0.978
    13   1 H    0.951 --    10 C    0.947
 ---------------------------------------------------------------------------

Topologies differ in total number of bonds
Writing topology from bond orders to xtbtopo.mol

molecular dipole:
                 x           y           z       tot (Debye)
 q only:        0.057       0.000       0.000
   full:        0.148       0.001       0.001       0.377
molecular quadrupole (traceless):
                xx          xy          yy          xz          yz          zz
 q only:       -0.171      -0.329       0.091      -0.001      -0.006       0.080
  q+dip:        0.340      -0.852      -0.164       0.003      -0.013      -0.176
   full:        0.456      -0.852      -0.223       0.003      -0.012      -0.233

           -------------------------------------------------
          |                Geometry Summary                 |
           -------------------------------------------------

      molecular mass/u    :       57.1144104
   center of mass at/Å    :        2.0643431      -2.0325981      -0.0002280
  moments of inertia/u·Å² :        0.6256130E+02   0.6266004E+02   0.1155599E+03
rotational constants/cm⁻¹ :        0.2694578E+00   0.2690332E+00   0.1458779E+00

 * 9 selected distances

     #   Z          #   Z                                           value/Å
     2   6 C        3   1 H                                       1.0898063
     2   6 C        4   1 H                                       1.0898487
     2   6 C        5   1 H                                       1.0988780
     6   6 C        7   1 H                                       1.0895955 (min)
     6   6 C        8   1 H                                       1.0900694
     6   6 C        9   1 H                                       1.0988663
    10   6 C       11   1 H                                       1.0897683
    10   6 C       12   1 H                                       1.0898603
    10   6 C       13   1 H                                       1.0989101 (max)

 * 1 distinct bonds (by element types)

   Z      Z             #   av. dist./Å        max./Å        min./Å
   1 H    6 C           9     1.0928448     1.0989101     1.0895955


optimized geometry written to: xtbopt.xyz


           -------------------------------------------------
          | TOTAL ENERGY              -13.086136088018 Eh   |
          | GRADIENT NORM               0.000448344262 Eh/α |
          | HOMO-LUMO GAP              10.288097742261 eV   |
           -------------------------------------------------

------------------------------------------------------------------------
 * finished run on 2022/11/14 at 22:12:14.854     
------------------------------------------------------------------------
 total:
 * wall-time:     0 d,  0 h,  0 min,  7.318 sec
 *  cpu-time:     0 d,  0 h,  0 min, 39.766 sec
 * ratio c/w:     5.434 speedup
 SCF:
 * wall-time:     0 d,  0 h,  0 min,  1.506 sec
 *  cpu-time:     0 d,  0 h,  0 min,  6.828 sec
 * ratio c/w:     4.534 speedup
 ANC optimizer:
 * wall-time:     0 d,  0 h,  0 min,  5.702 sec
 *  cpu-time:     0 d,  0 h,  0 min, 32.234 sec
 * ratio c/w:     5.653 speedup

