 Entering Gaussian System, Link 0=g16
 Input=free_ligand_L1_SP.inp
 Output=free_ligand_L1_SP.log
 Initial command:
 /sw/arch/Centos8/EB_production/2021/software/Gaussian/g16.c01/l1.exe "/scratch-local/adarsh.3296419/Gau-2205754.inp" -scrdir="/scratch-local/adarsh.3296419/"
 Entering Link 1 = /sw/arch/Centos8/EB_production/2021/software/Gaussian/g16.c01/l1.exe PID=   2205755.
  
 Copyright (c) 1988-2019, Gaussian, Inc.  All Rights Reserved.
  
 This is part of the Gaussian(R) 16 program.  It is based on
 the Gaussian(R) 09 system (copyright 2009, Gaussian, Inc.),
 the Gaussian(R) 03 system (copyright 2003, Gaussian, Inc.),
 the Gaussian(R) 98 system (copyright 1998, Gaussian, Inc.),
 the Gaussian(R) 94 system (copyright 1995, Gaussian, Inc.),
 the Gaussian 92(TM) system (copyright 1992, Gaussian, Inc.),
 the Gaussian 90(TM) system (copyright 1990, Gaussian, Inc.),
 the Gaussian 88(TM) system (copyright 1988, Gaussian, Inc.),
 the Gaussian 86(TM) system (copyright 1986, Carnegie Mellon
 University), and the Gaussian 82(TM) system (copyright 1983,
 Carnegie Mellon University). Gaussian is a federally registered
 trademark of Gaussian, Inc.
  
 This software contains proprietary and confidential information,
 including trade secrets, belonging to Gaussian, Inc.
  
 This software is provided under written license and may be
 used, copied, transmitted, or stored only in accord with that
 written license.
  
 The following legend is applicable only to US Government
 contracts under FAR:
  
                    RESTRICTED RIGHTS LEGEND
  
 Use, reproduction and disclosure by the US Government is
 subject to restrictions as set forth in subparagraphs (a)
 and (c) of the Commercial Computer Software - Restricted
 Rights clause in FAR 52.227-19.
  
 Gaussian, Inc.
 340 Quinnipiac St., Bldg. 40, Wallingford CT 06492
  
  
 ---------------------------------------------------------------
 Warning -- This program may not be used in any manner that
 competes with the business of Gaussian, Inc. or will provide
 assistance to any competitor of Gaussian, Inc.  The licensee
 of this program is prohibited from giving any competitor of
 Gaussian, Inc. access to this program.  By using this program,
 the user acknowledges that Gaussian, Inc. is engaged in the
 business of creating and licensing software in the field of
 computational chemistry and represents and warrants to the
 licensee that it is not a competitor of Gaussian, Inc. and that
 it will not use this program in any manner prohibited above.
 ---------------------------------------------------------------
  

 Cite this work as:
 Gaussian 16, Revision C.01,
 M. J. Frisch, G. W. Trucks, H. B. Schlegel, G. E. Scuseria, 
 M. A. Robb, J. R. Cheeseman, G. Scalmani, V. Barone, 
 G. A. Petersson, H. Nakatsuji, X. Li, M. Caricato, A. V. Marenich, 
 J. Bloino, B. G. Janesko, R. Gomperts, B. Mennucci, H. P. Hratchian, 
 J. V. Ortiz, A. F. Izmaylov, J. L. Sonnenberg, D. Williams-Young, 
 F. Ding, F. Lipparini, F. Egidi, J. Goings, B. Peng, A. Petrone, 
 T. Henderson, D. Ranasinghe, V. G. Zakrzewski, J. Gao, N. Rega, 
 G. Zheng, W. Liang, M. Hada, M. Ehara, K. Toyota, R. Fukuda, 
 J. Hasegawa, M. Ishida, T. Nakajima, Y. Honda, O. Kitao, H. Nakai, 
 T. Vreven, K. Throssell, J. A. Montgomery, Jr., J. E. Peralta, 
 F. Ogliaro, M. J. Bearpark, J. J. Heyd, E. N. Brothers, K. N. Kudin, 
 V. N. Staroverov, T. A. Keith, R. Kobayashi, J. Normand, 
 K. Raghavachari, A. P. Rendell, J. C. Burant, S. S. Iyengar, 
 J. Tomasi, M. Cossi, J. M. Millam, M. Klene, C. Adamo, R. Cammi, 
 J. W. Ochterski, R. L. Martin, K. Morokuma, O. Farkas, 
 J. B. Foresman, and D. J. Fox, Gaussian, Inc., Wallingford CT, 2019.
 
 ******************************************
 Gaussian 16:  ES64L-G16RevC.01  3-Jul-2019
                12-Aug-2023 
 ******************************************
 %nprocshared=32
 Will use up to   32 processors via shared memory.
 %mem=30GB
 %chk=free_ligand_L1.chk
 ----------------------------------------------------------------------
 #p pop=nbo NMR pbe1pbe/def2svpp empiricaldispersion=gd3bj integral=gri
 d=ultrafinegrid scf=(xqc,maxconventionalcycles=90) nosymm
 ----------------------------------------------------------------------
 1/38=1,172=1/1;
 2/12=2,15=1,17=6,18=5,40=1/2;
 3/5=43,7=202,11=2,25=1,30=1,74=-13,75=-5,124=41/1,2,3,8;
 4//1;
 5/5=2,8=3,13=1,38=5,85=90/2,8;
 8/6=1,10=90,11=11/1;
 10/13=100,31=1,45=16/2;
 6/7=2,8=2,9=2,10=2,28=1,40=1,64=1/1,7;
 99/9=1/99;
 Leave Link    1 at Sat Aug 12 03:23:03 2023, MaxMem=  4026531840 cpu:              29.9 elap:               1.0
 (Enter /sw/arch/Centos8/EB_production/2021/software/Gaussian/g16.c01/l101.exe)
 ----
 Cisa
 ----
 Symbolic Z-matrix:
 Charge =  0 Multiplicity = 1
 C                    -4.06619  -1.26089   0.21264 
 C                    -4.75927  -0.92534   1.40866 
 C                    -5.1105    0.45373   1.33959 
 C                    -4.63112   0.96968   0.10149 
 C                    -3.98235  -0.0891   -0.59537 
 H                    -3.66757  -2.24282  -0.0371 
 H                    -4.97035  -1.60033   2.23841 
 H                    -5.63069   1.02211   2.11089 
 H                    -4.72823   2.00015  -0.24141 
 H                    -3.51407  -0.01399  -1.57724 
 Fe                   -3.08438   0.24327   1.22463 
 C                    -2.08854   1.91806   1.81141 
 C                    -1.23265   1.1062    1.0069 
 C                    -1.10269  -0.17567   1.65052 
 C                    -1.89745  -0.12881   2.84628 
 C                    -2.49103   1.158     2.94466 
 H                    -2.40841   2.93328   1.5788 
 H                    -2.03769  -0.93784   3.56183 
 H                    -3.17518   1.48587   3.72735 
 C                    -0.46248   1.53421  -0.2027 
 H                    -0.49289   0.72455  -0.95081 
 P                     0.2552   -1.34137   1.32838 
 C                    -0.99543   2.80634  -0.84526 
 H                    -0.51082   3.00569  -1.81238 
 H                    -2.07697   2.69002  -1.03324 
 H                    -0.85071   3.6872   -0.19895 
 P                     1.36417   1.57694   0.28084 
 C                     1.67017   3.25466   0.92043 
 C                     2.20162   5.73563   2.11109 
 C                     2.97366   5.29421   1.03889 
 C                     2.71158   4.05902   0.44391 
 C                     0.91191   3.69345   2.01849 
 C                     1.17094   4.93074   2.6013 
 H                     2.40716   6.70544   2.57294 
 H                     3.78963   5.91459   0.65743 
 H                     3.32845   3.72456  -0.39437 
 H                     0.12449   3.05522   2.43126 
 H                     0.56937   5.26606   3.45106 
 C                     2.27787   1.44351  -1.29203 
 C                     3.66296   1.07474  -3.70077 
 C                     2.84502   2.19249  -3.5275 
 C                     2.15758   2.37976  -2.3305 
 C                     3.11208   0.33107  -1.47184 
 C                     3.80036   0.14648  -2.66979 
 H                     4.20154   0.93242  -4.64206 
 H                     2.74524   2.92855  -4.33026 
 H                     1.54205   3.27366  -2.20266 
 H                     3.21795  -0.39066  -0.65223 
 H                     4.44869  -0.72512  -2.79676 
 C                     0.2938   -1.83417  -0.46381 
 C                     1.27996  -2.97609  -0.72782 
 C                    -1.03523  -2.08132  -1.16719 
 H                     0.74383  -0.93938  -0.93195 
 C                     1.50339  -3.13927  -2.23049 
 H                     0.87108  -3.91822  -0.32128 
 H                     2.23947  -2.79129  -0.21057 
 C                    -0.81147  -2.2376   -2.66971 
 H                    -1.72416  -1.25092  -0.95429 
 H                    -1.50794  -2.99578  -0.76857 
 C                     0.18658  -3.35149  -2.97226 
 H                     2.18963  -3.98399  -2.41565 
 H                     2.00322  -2.23231  -2.62096 
 H                    -1.77385  -2.43392  -3.17398 
 H                    -0.43133  -1.28112  -3.07955 
 H                    -0.2506   -4.32177  -2.66731 
 H                     0.36799  -3.42013  -4.05866 
 C                    -0.1829   -2.77628   2.41478 
 C                    -1.51286  -3.45034   2.06038 
 C                     0.91181  -3.82993   2.61182 
 H                    -0.30628  -2.2703    3.39287 
 C                    -1.92662  -4.43138   3.15451 
 H                    -1.38985  -4.00282   1.11088 
 H                    -2.29838  -2.69593   1.89158 
 C                     0.50372  -4.81413   3.70797 
 H                     1.87081  -3.35784   2.87317 
 H                     1.0754   -4.38392   1.67199 
 C                    -0.83989  -5.47168   3.408 
 H                    -2.87488  -4.92347   2.8763 
 H                    -2.1279   -3.8701    4.08787 
 H                     1.28859  -5.58059   3.8298 
 H                     0.44224  -4.27398   4.67275 
 H                    -0.7376   -6.11345   2.5118 
 H                    -1.13197  -6.13934   4.23665 
 
 ITRead=  0  0  0  0  0  0  0  0  0  0  0  0  0  0  0  0  0  0  0  0
 ITRead=  0  0  0  0  0  0  0  0  0  0  0  0  0  0  0  0  0  0  0  0
 ITRead=  0  0  0  0  0  0  0  0  0  0  0  0  0  0  0  0  0  0  0  0
 ITRead=  0  0  0  0  0  0  0  0  0  0  0  0  0  0  0  0  0  0  0  0
 ITRead=  0  0  0
 MicOpt= -1 -1 -1 -1 -1 -1 -1 -1 -1 -1 -1 -1 -1 -1 -1 -1 -1 -1 -1 -1
 MicOpt= -1 -1 -1 -1 -1 -1 -1 -1 -1 -1 -1 -1 -1 -1 -1 -1 -1 -1 -1 -1
 MicOpt= -1 -1 -1 -1 -1 -1 -1 -1 -1 -1 -1 -1 -1 -1 -1 -1 -1 -1 -1 -1
 MicOpt= -1 -1 -1 -1 -1 -1 -1 -1 -1 -1 -1 -1 -1 -1 -1 -1 -1 -1 -1 -1
 MicOpt= -1 -1 -1
 NAtoms=     83 NQM=       83 NQMF=       0 NMMI=      0 NMMIF=      0
                NMic=       0 NMicF=      0.
                    Isotopes and Nuclear Properties:
 (Nuclear quadrupole moments (NQMom) in fm**2, nuclear magnetic moments (NMagM)
  in nuclear magnetons)

  Atom         1           2           3           4           5           6           7           8           9          10
 IAtWgt=          12          12          12          12          12           1           1           1           1           1
 AtmWgt=  12.0000000  12.0000000  12.0000000  12.0000000  12.0000000   1.0078250   1.0078250   1.0078250   1.0078250   1.0078250
 NucSpn=           0           0           0           0           0           1           1           1           1           1
 AtZEff=  -0.0000000  -0.0000000  -0.0000000  -0.0000000  -0.0000000  -0.0000000  -0.0000000  -0.0000000  -0.0000000  -0.0000000
 NQMom=    0.0000000   0.0000000   0.0000000   0.0000000   0.0000000   0.0000000   0.0000000   0.0000000   0.0000000   0.0000000
 NMagM=    0.0000000   0.0000000   0.0000000   0.0000000   0.0000000   2.7928460   2.7928460   2.7928460   2.7928460   2.7928460
 AtZNuc=   6.0000000   6.0000000   6.0000000   6.0000000   6.0000000   1.0000000   1.0000000   1.0000000   1.0000000   1.0000000

  Atom        11          12          13          14          15          16          17          18          19          20
 IAtWgt=          56          12          12          12          12          12           1           1           1          12
 AtmWgt=  55.9349393  12.0000000  12.0000000  12.0000000  12.0000000  12.0000000   1.0078250   1.0078250   1.0078250  12.0000000
 NucSpn=           0           0           0           0           0           0           1           1           1           0
 AtZEff=  -0.0000000  -0.0000000  -0.0000000  -0.0000000  -0.0000000  -0.0000000  -0.0000000  -0.0000000  -0.0000000  -0.0000000
 NQMom=    0.0000000   0.0000000   0.0000000   0.0000000   0.0000000   0.0000000   0.0000000   0.0000000   0.0000000   0.0000000
 NMagM=    0.0000000   0.0000000   0.0000000   0.0000000   0.0000000   0.0000000   2.7928460   2.7928460   2.7928460   0.0000000
 AtZNuc=  26.0000000   6.0000000   6.0000000   6.0000000   6.0000000   6.0000000   1.0000000   1.0000000   1.0000000   6.0000000

  Atom        21          22          23          24          25          26          27          28          29          30
 IAtWgt=           1          31          12           1           1           1          31          12          12          12
 AtmWgt=   1.0078250  30.9737634  12.0000000   1.0078250   1.0078250   1.0078250  30.9737634  12.0000000  12.0000000  12.0000000
 NucSpn=           1           1           0           1           1           1           1           0           0           0
 AtZEff=  -0.0000000  -0.0000000  -0.0000000  -0.0000000  -0.0000000  -0.0000000  -0.0000000  -0.0000000  -0.0000000  -0.0000000
 NQMom=    0.0000000   0.0000000   0.0000000   0.0000000   0.0000000   0.0000000   0.0000000   0.0000000   0.0000000   0.0000000
 NMagM=    2.7928460   1.1316000   0.0000000   2.7928460   2.7928460   2.7928460   1.1316000   0.0000000   0.0000000   0.0000000
 AtZNuc=   1.0000000  15.0000000   6.0000000   1.0000000   1.0000000   1.0000000  15.0000000   6.0000000   6.0000000   6.0000000

  Atom        31          32          33          34          35          36          37          38          39          40
 IAtWgt=          12          12          12           1           1           1           1           1          12          12
 AtmWgt=  12.0000000  12.0000000  12.0000000   1.0078250   1.0078250   1.0078250   1.0078250   1.0078250  12.0000000  12.0000000
 NucSpn=           0           0           0           1           1           1           1           1           0           0
 AtZEff=  -0.0000000  -0.0000000  -0.0000000  -0.0000000  -0.0000000  -0.0000000  -0.0000000  -0.0000000  -0.0000000  -0.0000000
 NQMom=    0.0000000   0.0000000   0.0000000   0.0000000   0.0000000   0.0000000   0.0000000   0.0000000   0.0000000   0.0000000
 NMagM=    0.0000000   0.0000000   0.0000000   2.7928460   2.7928460   2.7928460   2.7928460   2.7928460   0.0000000   0.0000000
 AtZNuc=   6.0000000   6.0000000   6.0000000   1.0000000   1.0000000   1.0000000   1.0000000   1.0000000   6.0000000   6.0000000

  Atom        41          42          43          44          45          46          47          48          49          50
 IAtWgt=          12          12          12          12           1           1           1           1           1          12
 AtmWgt=  12.0000000  12.0000000  12.0000000  12.0000000   1.0078250   1.0078250   1.0078250   1.0078250   1.0078250  12.0000000
 NucSpn=           0           0           0           0           1           1           1           1           1           0
 AtZEff=  -0.0000000  -0.0000000  -0.0000000  -0.0000000  -0.0000000  -0.0000000  -0.0000000  -0.0000000  -0.0000000  -0.0000000
 NQMom=    0.0000000   0.0000000   0.0000000   0.0000000   0.0000000   0.0000000   0.0000000   0.0000000   0.0000000   0.0000000
 NMagM=    0.0000000   0.0000000   0.0000000   0.0000000   2.7928460   2.7928460   2.7928460   2.7928460   2.7928460   0.0000000
 AtZNuc=   6.0000000   6.0000000   6.0000000   6.0000000   1.0000000   1.0000000   1.0000000   1.0000000   1.0000000   6.0000000

  Atom        51          52          53          54          55          56          57          58          59          60
 IAtWgt=          12          12           1          12           1           1          12           1           1          12
 AtmWgt=  12.0000000  12.0000000   1.0078250  12.0000000   1.0078250   1.0078250  12.0000000   1.0078250   1.0078250  12.0000000
 NucSpn=           0           0           1           0           1           1           0           1           1           0
 AtZEff=  -0.0000000  -0.0000000  -0.0000000  -0.0000000  -0.0000000  -0.0000000  -0.0000000  -0.0000000  -0.0000000  -0.0000000
 NQMom=    0.0000000   0.0000000   0.0000000   0.0000000   0.0000000   0.0000000   0.0000000   0.0000000   0.0000000   0.0000000
 NMagM=    0.0000000   0.0000000   2.7928460   0.0000000   2.7928460   2.7928460   0.0000000   2.7928460   2.7928460   0.0000000
 AtZNuc=   6.0000000   6.0000000   1.0000000   6.0000000   1.0000000   1.0000000   6.0000000   1.0000000   1.0000000   6.0000000

  Atom        61          62          63          64          65          66          67          68          69          70
 IAtWgt=           1           1           1           1           1           1          12          12          12           1
 AtmWgt=   1.0078250   1.0078250   1.0078250   1.0078250   1.0078250   1.0078250  12.0000000  12.0000000  12.0000000   1.0078250
 NucSpn=           1           1           1           1           1           1           0           0           0           1
 AtZEff=  -0.0000000  -0.0000000  -0.0000000  -0.0000000  -0.0000000  -0.0000000  -0.0000000  -0.0000000  -0.0000000  -0.0000000
 NQMom=    0.0000000   0.0000000   0.0000000   0.0000000   0.0000000   0.0000000   0.0000000   0.0000000   0.0000000   0.0000000
 NMagM=    2.7928460   2.7928460   2.7928460   2.7928460   2.7928460   2.7928460   0.0000000   0.0000000   0.0000000   2.7928460
 AtZNuc=   1.0000000   1.0000000   1.0000000   1.0000000   1.0000000   1.0000000   6.0000000   6.0000000   6.0000000   1.0000000

  Atom        71          72          73          74          75          76          77          78          79          80
 IAtWgt=          12           1           1          12           1           1          12           1           1           1
 AtmWgt=  12.0000000   1.0078250   1.0078250  12.0000000   1.0078250   1.0078250  12.0000000   1.0078250   1.0078250   1.0078250
 NucSpn=           0           1           1           0           1           1           0           1           1           1
 AtZEff=  -0.0000000  -0.0000000  -0.0000000  -0.0000000  -0.0000000  -0.0000000  -0.0000000  -0.0000000  -0.0000000  -0.0000000
 NQMom=    0.0000000   0.0000000   0.0000000   0.0000000   0.0000000   0.0000000   0.0000000   0.0000000   0.0000000   0.0000000
 NMagM=    0.0000000   2.7928460   2.7928460   0.0000000   2.7928460   2.7928460   0.0000000   2.7928460   2.7928460   2.7928460
 AtZNuc=   6.0000000   1.0000000   1.0000000   6.0000000   1.0000000   1.0000000   6.0000000   1.0000000   1.0000000   1.0000000

  Atom        81          82          83
 IAtWgt=           1           1           1
 AtmWgt=   1.0078250   1.0078250   1.0078250
 NucSpn=           1           1           1
 AtZEff=  -0.0000000  -0.0000000  -0.0000000
 NQMom=    0.0000000   0.0000000   0.0000000
 NMagM=    2.7928460   2.7928460   2.7928460
 AtZNuc=   1.0000000   1.0000000   1.0000000
 Leave Link  101 at Sat Aug 12 03:23:03 2023, MaxMem=  4026531840 cpu:               5.7 elap:               0.2
 (Enter /sw/arch/Centos8/EB_production/2021/software/Gaussian/g16.c01/l202.exe)
 Symmetry turned off by external request.
 Stoichiometry    C36H44FeP2
 Framework group  C1[X(C36H44FeP2)]
 Deg. of freedom   243
 Full point group                 C1      NOp   1
                          Input orientation:                          
 ---------------------------------------------------------------------
 Center     Atomic      Atomic             Coordinates (Angstroms)
 Number     Number       Type             X           Y           Z
 ---------------------------------------------------------------------
      1          6           0       -4.066190   -1.260890    0.212640
      2          6           0       -4.759270   -0.925340    1.408660
      3          6           0       -5.110500    0.453730    1.339590
      4          6           0       -4.631120    0.969680    0.101490
      5          6           0       -3.982350   -0.089100   -0.595370
      6          1           0       -3.667570   -2.242820   -0.037100
      7          1           0       -4.970350   -1.600330    2.238410
      8          1           0       -5.630690    1.022110    2.110890
      9          1           0       -4.728230    2.000150   -0.241410
     10          1           0       -3.514070   -0.013990   -1.577240
     11         26           0       -3.084380    0.243270    1.224630
     12          6           0       -2.088540    1.918060    1.811410
     13          6           0       -1.232650    1.106200    1.006900
     14          6           0       -1.102690   -0.175670    1.650520
     15          6           0       -1.897450   -0.128810    2.846280
     16          6           0       -2.491030    1.158000    2.944660
     17          1           0       -2.408410    2.933280    1.578800
     18          1           0       -2.037690   -0.937840    3.561830
     19          1           0       -3.175180    1.485870    3.727350
     20          6           0       -0.462480    1.534210   -0.202700
     21          1           0       -0.492890    0.724550   -0.950810
     22         15           0        0.255200   -1.341370    1.328380
     23          6           0       -0.995430    2.806340   -0.845260
     24          1           0       -0.510820    3.005690   -1.812380
     25          1           0       -2.076970    2.690020   -1.033240
     26          1           0       -0.850710    3.687200   -0.198950
     27         15           0        1.364170    1.576940    0.280840
     28          6           0        1.670170    3.254660    0.920430
     29          6           0        2.201620    5.735630    2.111090
     30          6           0        2.973660    5.294210    1.038890
     31          6           0        2.711580    4.059020    0.443910
     32          6           0        0.911910    3.693450    2.018490
     33          6           0        1.170940    4.930740    2.601300
     34          1           0        2.407160    6.705440    2.572940
     35          1           0        3.789630    5.914590    0.657430
     36          1           0        3.328450    3.724560   -0.394370
     37          1           0        0.124490    3.055220    2.431260
     38          1           0        0.569370    5.266060    3.451060
     39          6           0        2.277870    1.443510   -1.292030
     40          6           0        3.662960    1.074740   -3.700770
     41          6           0        2.845020    2.192490   -3.527500
     42          6           0        2.157580    2.379760   -2.330500
     43          6           0        3.112080    0.331070   -1.471840
     44          6           0        3.800360    0.146480   -2.669790
     45          1           0        4.201540    0.932420   -4.642060
     46          1           0        2.745240    2.928550   -4.330260
     47          1           0        1.542050    3.273660   -2.202660
     48          1           0        3.217950   -0.390660   -0.652230
     49          1           0        4.448690   -0.725120   -2.796760
     50          6           0        0.293800   -1.834170   -0.463810
     51          6           0        1.279960   -2.976090   -0.727820
     52          6           0       -1.035230   -2.081320   -1.167190
     53          1           0        0.743830   -0.939380   -0.931950
     54          6           0        1.503390   -3.139270   -2.230490
     55          1           0        0.871080   -3.918220   -0.321280
     56          1           0        2.239470   -2.791290   -0.210570
     57          6           0       -0.811470   -2.237600   -2.669710
     58          1           0       -1.724160   -1.250920   -0.954290
     59          1           0       -1.507940   -2.995780   -0.768570
     60          6           0        0.186580   -3.351490   -2.972260
     61          1           0        2.189630   -3.983990   -2.415650
     62          1           0        2.003220   -2.232310   -2.620960
     63          1           0       -1.773850   -2.433920   -3.173980
     64          1           0       -0.431330   -1.281120   -3.079550
     65          1           0       -0.250600   -4.321770   -2.667310
     66          1           0        0.367990   -3.420130   -4.058660
     67          6           0       -0.182900   -2.776280    2.414780
     68          6           0       -1.512860   -3.450340    2.060380
     69          6           0        0.911810   -3.829930    2.611820
     70          1           0       -0.306280   -2.270300    3.392870
     71          6           0       -1.926620   -4.431380    3.154510
     72          1           0       -1.389850   -4.002820    1.110880
     73          1           0       -2.298380   -2.695930    1.891580
     74          6           0        0.503720   -4.814130    3.707970
     75          1           0        1.870810   -3.357840    2.873170
     76          1           0        1.075400   -4.383920    1.671990
     77          6           0       -0.839890   -5.471680    3.408000
     78          1           0       -2.874880   -4.923470    2.876300
     79          1           0       -2.127900   -3.870100    4.087870
     80          1           0        1.288590   -5.580590    3.829800
     81          1           0        0.442240   -4.273980    4.672750
     82          1           0       -0.737600   -6.113450    2.511800
     83          1           0       -1.131970   -6.139340    4.236650
 ---------------------------------------------------------------------
 Rotational constants (GHZ):           0.1047245           0.0739947           0.0600132
 Leave Link  202 at Sat Aug 12 03:23:03 2023, MaxMem=  4026531840 cpu:               0.1 elap:               0.0
 (Enter /sw/arch/Centos8/EB_production/2021/software/Gaussian/g16.c01/l301.exe)
 Standard basis: def2SVPP (5D, 7F)
 Ernie: Thresh=  0.10000D-02 Tol=  0.10000D-05 Strict=F.
   652 basis functions,  1221 primitive gaussians,   692 cartesian basis functions
   158 alpha electrons      158 beta electrons
       nuclear repulsion energy      5867.2225573243 Hartrees.
 IExCor= 1009 DFT=T Ex+Corr=PBE1PBE ExCW=0 ScaHFX=  0.250000
 ScaDFX=  0.750000  0.750000  1.000000  1.000000 ScalE2=  1.000000  1.000000
 IRadAn=      5 IRanWt=     -1 IRanGd=            0 ICorTp=0 IEmpDi=141
 NAtoms=   83 NActive=   83 NUniq=   83 SFac= 1.00D+00 NAtFMM=   60 NAOKFM=T Big=T
 Integral buffers will be    131072 words long.
 Raffenetti 2 integral format.
 Two-electron integral symmetry is turned off.
 R6Disp:  Grimme-D3(BJ) Dispersion energy=       -0.1270338544 Hartrees.
 Nuclear repulsion after empirical dispersion term =     5867.0955234699 Hartrees.
 Leave Link  301 at Sat Aug 12 03:23:03 2023, MaxMem=  4026531840 cpu:               0.8 elap:               0.0
 (Enter /sw/arch/Centos8/EB_production/2021/software/Gaussian/g16.c01/l302.exe)
 NPDir=0 NMtPBC=     1 NCelOv=     1 NCel=       1 NClECP=     1 NCelD=      1
         NCelK=      1 NCelE2=     1 NClLst=     1 CellRange=     0.0.
 One-electron integrals computed using PRISM.
   1 Symmetry operations used in ECPInt.
 ECPInt:  NShTT=   54615 NPrTT=  226814 LenC2=   48198 LenP2D=  126016.
 LDataN:  DoStor=T MaxTD1= 4 Len=   56
 NBasis=   652 RedAO= T EigKep=  2.75D-04  NBF=   652
 NBsUse=   652 1.00D-06 EigRej= -1.00D+00 NBFU=   652
 Precomputing XC quadrature grid using
 IXCGrd= 4 IRadAn=           5 IRanWt=          -1 IRanGd=           0 AccXCQ= 0.00D+00.
 Generated NRdTot=       0 NPtTot=           0 NUsed=           0 NTot=          32
 NSgBfM=   673   672   672   672   673 MxSgAt=    83 MxSgA2=    83.
 Leave Link  302 at Sat Aug 12 03:23:04 2023, MaxMem=  4026531840 cpu:              35.0 elap:               1.1
 (Enter /sw/arch/Centos8/EB_production/2021/software/Gaussian/g16.c01/l303.exe)
 DipDrv:  MaxL=1.
 Leave Link  303 at Sat Aug 12 03:23:04 2023, MaxMem=  4026531840 cpu:               3.1 elap:               0.1
 (Enter /sw/arch/Centos8/EB_production/2021/software/Gaussian/g16.c01/l308.exe)
 Leave Link  308 at Sat Aug 12 03:23:05 2023, MaxMem=  4026531840 cpu:               5.9 elap:               0.2
 (Enter /sw/arch/Centos8/EB_production/2021/software/Gaussian/g16.c01/l401.exe)
 ExpMin= 3.37D-02 ExpMax= 6.09D+04 ExpMxC= 9.15D+03 IAcc=3 IRadAn=         5 AccDes= 0.00D+00
 Harris functional with IExCor= 1009 and IRadAn=       5 diagonalized for initial guess.
 HarFok:  IExCor= 1009 AccDes= 0.00D+00 IRadAn=         5 IDoV= 1 UseB2=F ITyADJ=14
 ICtDFT=  3500011 ScaDFX=  1.000000  1.000000  1.000000  1.000000
 FoFCou: FMM=F IPFlag=           0 FMFlag=      100000 FMFlg1=        2001
         NFxFlg=           0 DoJE=T BraDBF=F KetDBF=T FulRan=T
         wScrn=  0.000000 ICntrl=       500 IOpCl=  0 I1Cent=   200000004 NGrid=           0
         NMat0=    1 NMatS0=      1 NMatT0=    0 NMatD0=    1 NMtDS0=    0 NMtDT0=    0
 Symmetry not used in FoFCou.
 Harris En= -3341.66430304788    
 JPrj=0 DoOrth=F DoCkMO=F.
 Leave Link  401 at Sat Aug 12 03:23:07 2023, MaxMem=  4026531840 cpu:              82.3 elap:               2.6
 (Enter /sw/arch/Centos8/EB_production/2021/software/Gaussian/g16.c01/l502.exe)
 Two-electron integral symmetry not used.
 Closed shell SCF:
 Using DIIS extrapolation, IDIIS=  1040.
 NGot=  4026531840 LenX=  4025542864 LenY=  4025063308
 Requested convergence on RMS density matrix=1.00D-08 within  90 cycles.
 Requested convergence on MAX density matrix=1.00D-06.
 Requested convergence on             energy=1.00D-06.
 No special actions if energy rises.
 Fock matrices will be formed incrementally for  20 cycles.

 Cycle   1  Pass 1  IDiag  1:
 FoFJK:  IHMeth= 1 ICntrl=       0 DoSepK=F KAlg= 0 I1Cent=           0 FoldK=F
 IRaf= 990000000 NMat=       1 IRICut=       1 DoRegI=T DoRafI=F ISym2E= 0 IDoP0=0 IntGTp=1.
 FoFCou: FMM=T IPFlag=           0 FMFlag=      100000 FMFlg1=        2001
         NFxFlg=           0 DoJE=F BraDBF=F KetDBF=F FulRan=T
         wScrn=  0.000000 ICntrl=         0 IOpCl=  0 I1Cent=           0 NGrid=           0
         NMat0=    1 NMatS0=      1 NMatT0=    0 NMatD0=    1 NMtDS0=    0 NMtDT0=    0
 Symmetry not used in FoFCou.
 FMM levels:  10  Number of levels for PrismC:   9
 E= -3340.32829710054    
 DIIS: error= 2.36D-02 at cycle   1 NSaved=   1.
 NSaved= 1 IEnMin= 1 EnMin= -3340.32829710054     IErMin= 1 ErrMin= 2.36D-02
 ErrMax= 2.36D-02  0.00D+00 EMaxC= 1.00D-01 BMatC= 8.88D-01 BMatP= 8.88D-01
 IDIUse=3 WtCom= 7.64D-01 WtEn= 2.36D-01
 Coeff-Com:  0.100D+01
 Coeff-En:   0.100D+01
 Coeff:      0.100D+01
 Gap=     0.219 Goal=   None    Shift=    0.000
 GapD=    0.219 DampG=1.000 DampE=0.250 DampFc=0.2500 IDamp=-1.
 Damping current iteration by 2.50D-01
 RMSDP=4.26D-03 MaxDP=2.07D-01              OVMax= 1.64D-01

 Cycle   2  Pass 1  IDiag  1:
 RMSU=  1.01D-03    CP:  9.80D-01
 E= -3340.67002872229     Delta-E=       -0.341731621753 Rises=F Damp=T
 DIIS: error= 1.17D-02 at cycle   2 NSaved=   2.
 NSaved= 2 IEnMin= 2 EnMin= -3340.67002872229     IErMin= 2 ErrMin= 1.17D-02
 ErrMax= 1.17D-02  0.00D+00 EMaxC= 1.00D-01 BMatC= 2.18D-01 BMatP= 8.88D-01
 IDIUse=3 WtCom= 8.83D-01 WtEn= 1.17D-01
 Coeff-Com: -0.622D+00 0.162D+01
 Coeff-En:   0.000D+00 0.100D+01
 Coeff:     -0.549D+00 0.155D+01
 Gap=     0.199 Goal=   None    Shift=    0.000
 RMSDP=3.74D-03 MaxDP=2.50D-01 DE=-3.42D-01 OVMax= 3.74D-01

 Cycle   3  Pass 1  IDiag  1:
 RMSU=  3.63D-03    CP:  9.74D-01  1.87D+00
 E= -3339.97934639701     Delta-E=        0.690682325283 Rises=F Damp=F
 DIIS: error= 1.15D-01 at cycle   3 NSaved=   3.
 NSaved= 3 IEnMin= 2 EnMin= -3340.67002872229     IErMin= 2 ErrMin= 1.17D-02
 ErrMax= 1.15D-01  0.00D+00 EMaxC= 1.00D-01 BMatC= 2.11D+00 BMatP= 2.18D-01
 IDIUse=2 WtCom= 0.00D+00 WtEn= 1.00D+00
 Coeff-En:   0.000D+00 0.738D+00 0.262D+00
 Coeff:      0.000D+00 0.738D+00 0.262D+00
 Gap=     0.300 Goal=   None    Shift=    0.000
 RMSDP=5.41D-03 MaxDP=3.87D-01 DE= 6.91D-01 OVMax= 3.84D-01

 Cycle   4  Pass 1  IDiag  1:
 RMSU=  1.88D-03    CP:  9.21D-01  2.61D+00 -3.61D-01
 E= -3338.94939996660     Delta-E=        1.029946430406 Rises=F Damp=F
 DIIS: error= 1.09D-01 at cycle   4 NSaved=   4.
 NSaved= 4 IEnMin= 2 EnMin= -3340.67002872229     IErMin= 2 ErrMin= 1.17D-02
 ErrMax= 1.09D-01  0.00D+00 EMaxC= 1.00D-01 BMatC= 3.83D+00 BMatP= 2.18D-01
 IDIUse=2 WtCom= 0.00D+00 WtEn= 1.00D+00
 Coeff-En:   0.000D+00 0.000D+00 0.585D+00 0.415D+00
 Coeff:      0.000D+00 0.000D+00 0.585D+00 0.415D+00
 Gap=     0.107 Goal=   None    Shift=    0.000
 RMSDP=2.19D-03 MaxDP=2.08D-01 DE= 1.03D+00 OVMax= 2.69D-01

 Cycle   5  Pass 1  IDiag  1:
 RMSU=  8.29D-04    CP:  9.52D-01  1.62D+00  2.83D-02  5.17D-01
 E= -3341.16074401343     Delta-E=       -2.211344046833 Rises=F Damp=F
 DIIS: error= 2.08D-02 at cycle   5 NSaved=   5.
 NSaved= 5 IEnMin= 5 EnMin= -3341.16074401343     IErMin= 2 ErrMin= 1.17D-02
 ErrMax= 2.08D-02  0.00D+00 EMaxC= 1.00D-01 BMatC= 1.79D-01 BMatP= 2.18D-01
 IDIUse=3 WtCom= 7.92D-01 WtEn= 2.08D-01
 Coeff-Com: -0.559D+00 0.779D+00 0.145D+00-0.112D+00 0.747D+00
 Coeff-En:   0.000D+00 0.000D+00 0.175D+00 0.000D+00 0.825D+00
 Coeff:     -0.443D+00 0.617D+00 0.151D+00-0.888D-01 0.763D+00
 Gap=     0.164 Goal=   None    Shift=    0.000
 RMSDP=9.63D-04 MaxDP=8.51D-02 DE=-2.21D+00 OVMax= 6.54D-02

 Cycle   6  Pass 1  IDiag  1:
 RMSU=  4.38D-04    CP:  9.52D-01  2.08D+00  1.83D-01  2.82D-01  8.92D-01
 E= -3341.29122821316     Delta-E=       -0.130484199728 Rises=F Damp=F
 DIIS: error= 4.46D-03 at cycle   6 NSaved=   6.
 NSaved= 6 IEnMin= 6 EnMin= -3341.29122821316     IErMin= 6 ErrMin= 4.46D-03
 ErrMax= 4.46D-03  0.00D+00 EMaxC= 1.00D-01 BMatC= 1.03D-02 BMatP= 1.79D-01
 IDIUse=3 WtCom= 9.55D-01 WtEn= 4.46D-02
 Coeff-Com: -0.237D+00 0.320D+00 0.751D-01-0.709D-01 0.395D+00 0.518D+00
 Coeff-En:   0.000D+00 0.000D+00 0.000D+00 0.000D+00 0.000D+00 0.100D+01
 Coeff:     -0.226D+00 0.306D+00 0.718D-01-0.677D-01 0.377D+00 0.539D+00
 Gap=     0.150 Goal=   None    Shift=    0.000
 RMSDP=3.39D-04 MaxDP=2.27D-02 DE=-1.30D-01 OVMax= 2.06D-02

 Cycle   7  Pass 1  IDiag  1:
 RMSU=  1.68D-04    CP:  9.52D-01  2.01D+00  1.68D-01  2.93D-01  1.00D+00
                    CP:  4.01D-01
 E= -3341.29684376369     Delta-E=       -0.005615550524 Rises=F Damp=F
 DIIS: error= 3.64D-03 at cycle   7 NSaved=   7.
 NSaved= 7 IEnMin= 7 EnMin= -3341.29684376369     IErMin= 7 ErrMin= 3.64D-03
 ErrMax= 3.64D-03  0.00D+00 EMaxC= 1.00D-01 BMatC= 4.66D-03 BMatP= 1.03D-02
 IDIUse=3 WtCom= 9.64D-01 WtEn= 3.64D-02
 Coeff-Com:  0.346D-01-0.453D-01 0.152D-01-0.154D-01-0.150D-01 0.339D+00
 Coeff-Com:  0.687D+00
 Coeff-En:   0.000D+00 0.000D+00 0.000D+00 0.000D+00 0.000D+00 0.134D+00
 Coeff-En:   0.866D+00
 Coeff:      0.333D-01-0.437D-01 0.147D-01-0.149D-01-0.145D-01 0.331D+00
 Coeff:      0.694D+00
 Gap=     0.149 Goal=   None    Shift=    0.000
 RMSDP=1.41D-04 MaxDP=1.13D-02 DE=-5.62D-03 OVMax= 1.25D-02

 Cycle   8  Pass 1  IDiag  1:
 RMSU=  6.47D-05    CP:  9.53D-01  2.01D+00  1.85D-01  2.73D-01  9.89D-01
                    CP:  5.80D-01  6.16D-01
 E= -3341.30008091292     Delta-E=       -0.003237149231 Rises=F Damp=F
 DIIS: error= 3.88D-04 at cycle   8 NSaved=   8.
 NSaved= 8 IEnMin= 8 EnMin= -3341.30008091292     IErMin= 8 ErrMin= 3.88D-04
 ErrMax= 3.88D-04  0.00D+00 EMaxC= 1.00D-01 BMatC= 1.52D-04 BMatP= 4.66D-03
 IDIUse=3 WtCom= 9.96D-01 WtEn= 3.88D-03
 Coeff-Com:  0.512D-01-0.703D-01 0.650D-03-0.277D-03-0.541D-01 0.129D+00
 Coeff-Com:  0.383D+00 0.561D+00
 Coeff-En:   0.000D+00 0.000D+00 0.000D+00 0.000D+00 0.000D+00 0.000D+00
 Coeff-En:   0.000D+00 0.100D+01
 Coeff:      0.510D-01-0.700D-01 0.648D-03-0.276D-03-0.539D-01 0.128D+00
 Coeff:      0.381D+00 0.563D+00
 Gap=     0.148 Goal=   None    Shift=    0.000
 RMSDP=3.91D-05 MaxDP=2.79D-03 DE=-3.24D-03 OVMax= 2.86D-03

 Cycle   9  Pass 1  IDiag  1:
 RMSU=  2.28D-05    CP:  9.53D-01  2.01D+00  1.86D-01  2.75D-01  9.95D-01
                    CP:  6.02D-01  6.99D-01  5.99D-01
 E= -3341.30023580984     Delta-E=       -0.000154896923 Rises=F Damp=F
 DIIS: error= 1.37D-04 at cycle   9 NSaved=   9.
 NSaved= 9 IEnMin= 9 EnMin= -3341.30023580984     IErMin= 9 ErrMin= 1.37D-04
 ErrMax= 1.37D-04  0.00D+00 EMaxC= 1.00D-01 BMatC= 1.25D-05 BMatP= 1.52D-04
 IDIUse=3 WtCom= 9.99D-01 WtEn= 1.37D-03
 Coeff-Com:  0.247D-01-0.339D-01-0.777D-03 0.959D-03-0.268D-01 0.435D-01
 Coeff-Com:  0.147D+00 0.302D+00 0.543D+00
 Coeff-En:   0.000D+00 0.000D+00 0.000D+00 0.000D+00 0.000D+00 0.000D+00
 Coeff-En:   0.000D+00 0.000D+00 0.100D+01
 Coeff:      0.246D-01-0.338D-01-0.776D-03 0.958D-03-0.267D-01 0.435D-01
 Coeff:      0.147D+00 0.302D+00 0.544D+00
 Gap=     0.148 Goal=   None    Shift=    0.000
 RMSDP=1.27D-05 MaxDP=7.49D-04 DE=-1.55D-04 OVMax= 1.07D-03

 Cycle  10  Pass 1  IDiag  1:
 RMSU=  1.00D-05    CP:  9.53D-01  2.01D+00  1.87D-01  2.74D-01  9.96D-01
                    CP:  6.01D-01  7.09D-01  6.37D-01  7.08D-01
 E= -3341.30024614885     Delta-E=       -0.000010339008 Rises=F Damp=F
 DIIS: error= 1.39D-04 at cycle  10 NSaved=  10.
 NSaved=10 IEnMin=10 EnMin= -3341.30024614885     IErMin= 9 ErrMin= 1.37D-04
 ErrMax= 1.39D-04  0.00D+00 EMaxC= 1.00D-01 BMatC= 5.30D-06 BMatP= 1.25D-05
 IDIUse=3 WtCom= 9.99D-01 WtEn= 1.37D-03
 Coeff-Com:  0.541D-02-0.723D-02-0.730D-03 0.488D-03-0.585D-02 0.786D-02
 Coeff-Com:  0.289D-01 0.860D-01 0.306D+00 0.580D+00
 Coeff-En:   0.000D+00 0.000D+00 0.000D+00 0.000D+00 0.000D+00 0.000D+00
 Coeff-En:   0.000D+00 0.000D+00 0.199D+00 0.801D+00
 Coeff:      0.540D-02-0.722D-02-0.729D-03 0.488D-03-0.584D-02 0.785D-02
 Coeff:      0.289D-01 0.859D-01 0.305D+00 0.580D+00
 Gap=     0.148 Goal=   None    Shift=    0.000
 RMSDP=5.12D-06 MaxDP=3.86D-04 DE=-1.03D-05 OVMax= 3.15D-04

 Cycle  11  Pass 1  IDiag  1:
 RMSU=  2.49D-06    CP:  9.53D-01  2.01D+00  1.86D-01  2.74D-01  9.96D-01
                    CP:  6.01D-01  7.05D-01  6.44D-01  7.93D-01  7.00D-01
 E= -3341.30024917391     Delta-E=       -0.000003025063 Rises=F Damp=F
 DIIS: error= 9.22D-05 at cycle  11 NSaved=  11.
 NSaved=11 IEnMin=11 EnMin= -3341.30024917391     IErMin=11 ErrMin= 9.22D-05
 ErrMax= 9.22D-05  0.00D+00 EMaxC= 1.00D-01 BMatC= 1.75D-06 BMatP= 5.30D-06
 IDIUse=1 WtCom= 1.00D+00 WtEn= 0.00D+00
 Coeff-Com:  0.413D-03-0.495D-03-0.491D-03 0.176D-03-0.169D-03 0.165D-02
 Coeff-Com:  0.386D-02 0.187D-01 0.109D+00 0.289D+00 0.578D+00
 Coeff:      0.413D-03-0.495D-03-0.491D-03 0.176D-03-0.169D-03 0.165D-02
 Coeff:      0.386D-02 0.187D-01 0.109D+00 0.289D+00 0.578D+00
 Gap=     0.148 Goal=   None    Shift=    0.000
 RMSDP=2.19D-06 MaxDP=1.31D-04 DE=-3.03D-06 OVMax= 1.72D-04

 Cycle  12  Pass 1  IDiag  1:
 RMSU=  9.23D-07    CP:  9.53D-01  2.01D+00  1.86D-01  2.75D-01  9.96D-01
                    CP:  6.01D-01  7.04D-01  6.47D-01  8.05D-01  7.43D-01
                    CP:  9.13D-01
 E= -3341.30025013128     Delta-E=       -0.000000957369 Rises=F Damp=F
 DIIS: error= 4.08D-05 at cycle  12 NSaved=  12.
 NSaved=12 IEnMin=12 EnMin= -3341.30025013128     IErMin=12 ErrMin= 4.08D-05
 ErrMax= 4.08D-05  0.00D+00 EMaxC= 1.00D-01 BMatC= 3.15D-07 BMatP= 1.75D-06
 IDIUse=1 WtCom= 1.00D+00 WtEn= 0.00D+00
 Coeff-Com: -0.719D-03 0.948D-03-0.212D-03 0.191D-04 0.105D-02 0.232D-03
 Coeff-Com: -0.186D-02-0.493D-02 0.709D-03 0.357D-01 0.247D+00 0.722D+00
 Coeff:     -0.719D-03 0.948D-03-0.212D-03 0.191D-04 0.105D-02 0.232D-03
 Coeff:     -0.186D-02-0.493D-02 0.709D-03 0.357D-01 0.247D+00 0.722D+00
 Gap=     0.148 Goal=   None    Shift=    0.000
 RMSDP=1.45D-06 MaxDP=8.92D-05 DE=-9.57D-07 OVMax= 1.24D-04

 Cycle  13  Pass 1  IDiag  1:
 RMSU=  5.42D-07    CP:  9.53D-01  2.01D+00  1.85D-01  2.75D-01  9.96D-01
                    CP:  6.01D-01  7.03D-01  6.48D-01  8.16D-01  7.71D-01
                    CP:  1.03D+00  9.24D-01
 E= -3341.30025033303     Delta-E=       -0.000000201746 Rises=F Damp=F
 DIIS: error= 7.89D-06 at cycle  13 NSaved=  13.
 NSaved=13 IEnMin=13 EnMin= -3341.30025033303     IErMin=13 ErrMin= 7.89D-06
 ErrMax= 7.89D-06  0.00D+00 EMaxC= 1.00D-01 BMatC= 1.49D-08 BMatP= 3.15D-07
 IDIUse=1 WtCom= 1.00D+00 WtEn= 0.00D+00
 Coeff-Com: -0.379D-03 0.485D-03-0.243D-04-0.184D-04 0.450D-03-0.143D-03
 Coeff-Com: -0.134D-02-0.601D-02-0.228D-01-0.491D-01-0.333D-01 0.369D+00
 Coeff-Com:  0.743D+00
 Coeff:     -0.379D-03 0.485D-03-0.243D-04-0.184D-04 0.450D-03-0.143D-03
 Coeff:     -0.134D-02-0.601D-02-0.228D-01-0.491D-01-0.333D-01 0.369D+00
 Coeff:      0.743D+00
 Gap=     0.148 Goal=   None    Shift=    0.000
 RMSDP=6.98D-07 MaxDP=4.83D-05 DE=-2.02D-07 OVMax= 6.64D-05

 Cycle  14  Pass 1  IDiag  1:
 RMSU=  2.48D-07    CP:  9.53D-01  2.01D+00  1.85D-01  2.75D-01  9.96D-01
                    CP:  6.01D-01  7.03D-01  6.48D-01  8.24D-01  7.80D-01
                    CP:  1.10D+00  1.21D+00  9.55D-01
 E= -3341.30025034861     Delta-E=       -0.000000015583 Rises=F Damp=F
 DIIS: error= 2.20D-06 at cycle  14 NSaved=  14.
 NSaved=14 IEnMin=14 EnMin= -3341.30025034861     IErMin=14 ErrMin= 2.20D-06
 ErrMax= 2.20D-06  0.00D+00 EMaxC= 1.00D-01 BMatC= 2.59D-09 BMatP= 1.49D-08
 IDIUse=1 WtCom= 1.00D+00 WtEn= 0.00D+00
 Coeff-Com: -0.870D-04 0.108D-03 0.104D-04-0.862D-05 0.588D-04-0.147D-03
 Coeff-Com: -0.477D-03-0.242D-02-0.111D-01-0.288D-01-0.485D-01 0.106D+00
 Coeff-Com:  0.420D+00 0.566D+00
 Coeff:     -0.870D-04 0.108D-03 0.104D-04-0.862D-05 0.588D-04-0.147D-03
 Coeff:     -0.477D-03-0.242D-02-0.111D-01-0.288D-01-0.485D-01 0.106D+00
 Coeff:      0.420D+00 0.566D+00
 Gap=     0.148 Goal=   None    Shift=    0.000
 RMSDP=1.53D-07 MaxDP=1.43D-05 DE=-1.56D-08 OVMax= 2.57D-05

 Cycle  15  Pass 1  IDiag  1:
 RMSU=  1.06D-07    CP:  9.53D-01  2.01D+00  1.85D-01  2.75D-01  9.96D-01
                    CP:  6.01D-01  7.03D-01  6.49D-01  8.24D-01  7.82D-01
                    CP:  1.12D+00  1.25D+00  1.12D+00  9.85D-01
 E= -3341.30025035198     Delta-E=       -0.000000003374 Rises=F Damp=F
 DIIS: error= 1.51D-06 at cycle  15 NSaved=  15.
 NSaved=15 IEnMin=15 EnMin= -3341.30025035198     IErMin=15 ErrMin= 1.51D-06
 ErrMax= 1.51D-06  0.00D+00 EMaxC= 1.00D-01 BMatC= 6.32D-10 BMatP= 2.59D-09
 IDIUse=1 WtCom= 1.00D+00 WtEn= 0.00D+00
 Coeff-Com:  0.138D-04-0.189D-04 0.995D-05-0.116D-05-0.385D-04-0.785D-04
 Coeff-Com: -0.105D-03-0.295D-03-0.135D-02-0.438D-02-0.127D-01-0.740D-02
 Coeff-Com:  0.599D-01 0.219D+00 0.747D+00
 Coeff:      0.138D-04-0.189D-04 0.995D-05-0.116D-05-0.385D-04-0.785D-04
 Coeff:     -0.105D-03-0.295D-03-0.135D-02-0.438D-02-0.127D-01-0.740D-02
 Coeff:      0.599D-01 0.219D+00 0.747D+00
 Gap=     0.148 Goal=   None    Shift=    0.000
 RMSDP=1.12D-07 MaxDP=1.28D-05 DE=-3.37D-09 OVMax= 2.10D-05

 Cycle  16  Pass 1  IDiag  1:
 RMSU=  6.06D-08    CP:  9.53D-01  2.01D+00  1.85D-01  2.75D-01  9.96D-01
                    CP:  6.01D-01  7.03D-01  6.49D-01  8.24D-01  7.83D-01
                    CP:  1.13D+00  1.28D+00  1.19D+00  1.19D+00  1.33D+00
 E= -3341.30025035312     Delta-E=       -0.000000001131 Rises=F Damp=F
 DIIS: error= 5.63D-07 at cycle  16 NSaved=  16.
 NSaved=16 IEnMin=16 EnMin= -3341.30025035312     IErMin=16 ErrMin= 5.63D-07
 ErrMax= 5.63D-07  0.00D+00 EMaxC= 1.00D-01 BMatC= 1.05D-10 BMatP= 6.32D-10
 IDIUse=1 WtCom= 1.00D+00 WtEn= 0.00D+00
 Coeff-Com:  0.433D-04-0.538D-04 0.233D-05 0.276D-05-0.412D-04 0.213D-04
 Coeff-Com:  0.136D-03 0.907D-03 0.449D-02 0.115D-01 0.174D-01-0.533D-01
 Coeff-Com: -0.174D+00-0.168D+00 0.410D+00 0.951D+00
 Coeff:      0.433D-04-0.538D-04 0.233D-05 0.276D-05-0.412D-04 0.213D-04
 Coeff:      0.136D-03 0.907D-03 0.449D-02 0.115D-01 0.174D-01-0.533D-01
 Coeff:     -0.174D+00-0.168D+00 0.410D+00 0.951D+00
 Gap=     0.148 Goal=   None    Shift=    0.000
 RMSDP=1.22D-07 MaxDP=1.44D-05 DE=-1.13D-09 OVMax= 2.47D-05

 Cycle  17  Pass 1  IDiag  1:
 RMSU=  3.43D-08    CP:  9.53D-01  2.01D+00  1.85D-01  2.75D-01  9.96D-01
                    CP:  6.01D-01  7.03D-01  6.49D-01  8.25D-01  7.83D-01
                    CP:  1.14D+00  1.32D+00  1.28D+00  1.41D+00  1.98D+00
                    CP:  1.45D+00
 E= -3341.30025035361     Delta-E=       -0.000000000491 Rises=F Damp=F
 DIIS: error= 3.71D-07 at cycle  17 NSaved=  17.
 NSaved=17 IEnMin=17 EnMin= -3341.30025035361     IErMin=17 ErrMin= 3.71D-07
 ErrMax= 3.71D-07  0.00D+00 EMaxC= 1.00D-01 BMatC= 6.20D-11 BMatP= 1.05D-10
 IDIUse=1 WtCom= 1.00D+00 WtEn= 0.00D+00
 Coeff-Com:  0.200D-04-0.246D-04-0.927D-06 0.148D-05-0.693D-05 0.522D-04
 Coeff-Com:  0.133D-03 0.604D-03 0.282D-02 0.750D-02 0.132D-01-0.288D-01
 Coeff-Com: -0.122D+00-0.175D+00-0.425D-02 0.583D+00 0.722D+00
 Coeff:      0.200D-04-0.246D-04-0.927D-06 0.148D-05-0.693D-05 0.522D-04
 Coeff:      0.133D-03 0.604D-03 0.282D-02 0.750D-02 0.132D-01-0.288D-01
 Coeff:     -0.122D+00-0.175D+00-0.425D-02 0.583D+00 0.722D+00
 Gap=     0.148 Goal=   None    Shift=    0.000
 RMSDP=6.23D-08 MaxDP=6.58D-06 DE=-4.91D-10 OVMax= 1.26D-05

 Cycle  18  Pass 1  IDiag  1:
 RMSU=  1.45D-08    CP:  9.53D-01  2.01D+00  1.85D-01  2.75D-01  9.96D-01
                    CP:  6.01D-01  7.03D-01  6.49D-01  8.25D-01  7.84D-01
                    CP:  1.14D+00  1.34D+00  1.32D+00  1.54D+00  2.27D+00
                    CP:  1.78D+00  8.50D-01
 E= -3341.30025035377     Delta-E=       -0.000000000160 Rises=F Damp=F
 DIIS: error= 2.59D-07 at cycle  18 NSaved=  18.
 NSaved=18 IEnMin=18 EnMin= -3341.30025035377     IErMin=18 ErrMin= 2.59D-07
 ErrMax= 2.59D-07  0.00D+00 EMaxC= 1.00D-01 BMatC= 1.80D-11 BMatP= 6.20D-11
 IDIUse=1 WtCom= 1.00D+00 WtEn= 0.00D+00
 Coeff-Com:  0.333D-05-0.382D-05-0.522D-06 0.187D-06 0.480D-05 0.280D-04
 Coeff-Com:  0.538D-04 0.186D-03 0.810D-03 0.226D-02 0.432D-02-0.902D-02
 Coeff-Com: -0.425D-01-0.718D-01-0.553D-01 0.186D+00 0.393D+00 0.592D+00
 Coeff:      0.333D-05-0.382D-05-0.522D-06 0.187D-06 0.480D-05 0.280D-04
 Coeff:      0.538D-04 0.186D-03 0.810D-03 0.226D-02 0.432D-02-0.902D-02
 Coeff:     -0.425D-01-0.718D-01-0.553D-01 0.186D+00 0.393D+00 0.592D+00
 Gap=     0.148 Goal=   None    Shift=    0.000
 RMSDP=1.50D-08 MaxDP=1.51D-06 DE=-1.60D-10 OVMax= 2.56D-06

 Cycle  19  Pass 1  IDiag  1:
 RMSU=  5.21D-09    CP:  9.53D-01  2.01D+00  1.85D-01  2.75D-01  9.96D-01
                    CP:  6.01D-01  7.03D-01  6.49D-01  8.25D-01  7.84D-01
                    CP:  1.14D+00  1.34D+00  1.33D+00  1.56D+00  2.33D+00
                    CP:  1.84D+00  9.69D-01  8.03D-01
 E= -3341.30025035384     Delta-E=       -0.000000000069 Rises=F Damp=F
 DIIS: error= 4.86D-08 at cycle  19 NSaved=  19.
 NSaved=19 IEnMin=19 EnMin= -3341.30025035384     IErMin=19 ErrMin= 4.86D-08
 ErrMax= 4.86D-08  0.00D+00 EMaxC= 1.00D-01 BMatC= 8.78D-13 BMatP= 1.80D-11
 IDIUse=1 WtCom= 1.00D+00 WtEn= 0.00D+00
 Coeff-Com: -0.128D-06 0.224D-06-0.232D-06-0.390D-07 0.247D-05 0.869D-05
 Coeff-Com:  0.139D-04 0.240D-04 0.516D-04 0.155D-03 0.361D-03-0.962D-03
 Coeff-Com: -0.520D-02-0.128D-01-0.252D-01 0.169D-01 0.986D-01 0.289D+00
 Coeff-Com:  0.639D+00
 Coeff:     -0.128D-06 0.224D-06-0.232D-06-0.390D-07 0.247D-05 0.869D-05
 Coeff:      0.139D-04 0.240D-04 0.516D-04 0.155D-03 0.361D-03-0.962D-03
 Coeff:     -0.520D-02-0.128D-01-0.252D-01 0.169D-01 0.986D-01 0.289D+00
 Coeff:      0.639D+00
 Gap=     0.148 Goal=   None    Shift=    0.000
 RMSDP=3.74D-09 MaxDP=3.15D-07 DE=-6.91D-11 OVMax= 5.83D-07

 SCF Done:  E(RPBE1PBE) =  -3341.30025035     A.U. after   19 cycles
            NFock= 19  Conv=0.37D-08     -V/T= 2.0056
 KE= 3.322699055613D+03 PE=-1.959305242154D+04 EE= 7.061957592102D+03
 Leave Link  502 at Sat Aug 12 03:25:46 2023, MaxMem=  4026531840 cpu:            4990.8 elap:             158.4
 (Enter /sw/arch/Centos8/EB_production/2021/software/Gaussian/g16.c01/l508.exe)
 QCSCF skips out because SCF is already converged.
 Leave Link  508 at Sat Aug 12 03:25:46 2023, MaxMem=  4026531840 cpu:               0.4 elap:               0.0
 (Enter /sw/arch/Centos8/EB_production/2021/software/Gaussian/g16.c01/l801.exe)
 DoSCS=F DFT=T ScalE2(SS,OS)=  1.000000  1.000000
 Range of M.O.s used for correlation:     1   652
 NBasis=   652 NAE=   158 NBE=   158 NFC=     0 NFV=     0
 NROrb=    652 NOA=   158 NOB=   158 NVA=   494 NVB=   494

 **** Warning!!: The largest alpha MO coefficient is  0.13298134D+02

 Leave Link  801 at Sat Aug 12 03:25:46 2023, MaxMem=  4026531840 cpu:               0.5 elap:               0.0
 (Enter /sw/arch/Centos8/EB_production/2021/software/Gaussian/g16.c01/l1002.exe)
 Minotr:  Closed shell wavefunction.
          Direct CPHF calculation.
          Differentiating once with respect to magnetic field using GIAOs.
          Electric field/nuclear overlap derivatives assumed to be zero.
          Requested convergence is 1.0D-08 RMS, and 1.0D-07 maximum.
          Secondary convergence is 1.0D-12 RMS, and 1.0D-12 maximum.
          NewPWx=T KeepS1=F KeepF1=F KeepIn=T MapXYZ=F SortEE=F KeepMc=T.
        25554 words used for storage of precomputed grid.
 Two-electron integral symmetry not used.
          MDV=    4026531840 using IRadAn=       1.
          Solving linear equations simultaneously, MaxMat=      96.
 FoFCou: FMM=F IPFlag=           0 FMFlag=      100000 FMFlg1=        2001
         NFxFlg=           0 DoJE=F BraDBF=F KetDBF=T FulRan=T
         wScrn=  0.000000 ICntrl=      6100 IOpCl=  0 I1Cent=           7 NGrid=          83
         NMat0=    1 NMatS0=      1 NMatT0=    0 NMatD0=    1 NMtDS0=    0 NMtDT0=    0
 Symmetry not used in FoFCou.
   1 Symmetry operations used in ECPInt.
 ECPInt:  NShTT=   54615 NPrTT=  226814 LenC2=   54616 LenP2D=  226814.
 LDataN:  DoStor=T MaxTD1= 5 Len=  102
 FoFJK:  IHMeth= 1 ICntrl=    6127 DoSepK=F KAlg= 0 I1Cent=           0 FoldK=F
 IRaf=         1 NMat=       1 IRICut=       1 DoRegI=T DoRafI=F ISym2E= 0 IDoP0=0 IntGTp=1.
          There are     3 degrees of freedom in the 1st order CPHF.  IDoFFX=0 NUNeed=     3.
      3 vectors produced by pass  0 Test12= 2.60D-12 3.33D-08 XBig12= 1.53D+02 1.89D+00.
 AX will form     3 AO Fock derivatives at one time.
      3 vectors produced by pass  1 Test12= 2.60D-12 3.33D-08 XBig12= 1.22D+00 4.33D-01.
      3 vectors produced by pass  2 Test12= 2.60D-12 3.33D-08 XBig12= 5.47D-02 5.20D-02.
      3 vectors produced by pass  3 Test12= 2.60D-12 3.33D-08 XBig12= 5.09D-04 5.97D-03.
      3 vectors produced by pass  4 Test12= 2.60D-12 3.33D-08 XBig12= 2.46D-05 1.52D-03.
      3 vectors produced by pass  5 Test12= 2.60D-12 3.33D-08 XBig12= 2.67D-07 1.13D-04.
      3 vectors produced by pass  6 Test12= 2.60D-12 3.33D-08 XBig12= 1.60D-09 1.15D-05.
      3 vectors produced by pass  7 Test12= 2.60D-12 3.33D-08 XBig12= 1.95D-11 1.41D-06.
      3 vectors produced by pass  8 Test12= 2.60D-12 3.33D-08 XBig12= 3.16D-13 1.18D-07.
 InvSVY:  IOpt=1 It=  1 EMax= 1.78D-15
 Solved reduced A of dimension    27 with     3 vectors.
 Calculating GIAO nuclear magnetic shielding tensors.
 SCF GIAO Magnetic shielding tensor (ppm):
      1  C    Isotropic =   118.6793   Anisotropy =    89.4093
   XX=   170.8325   YX=     1.5873   ZX=    16.3418
   XY=    15.3139   YY=    73.8434   ZY=    -7.2559
   XZ=    27.4012   YZ=   -10.0954   ZZ=   111.3622
   Eigenvalues:    70.1082   107.6443   178.2856
      2  C    Isotropic =   125.3386   Anisotropy =    81.5571
   XX=   154.0336   YX=   -17.7686   ZX=    45.1078
   XY=    -5.5583   YY=   102.6166   ZY=    26.6308
   XZ=    33.2876   YZ=    21.0245   ZZ=   119.3657
   Eigenvalues:    71.4931   124.8128   179.7100
      3  C    Isotropic =   126.2299   Anisotropy =    79.3091
   XX=   127.8006   YX=    34.6077   ZX=    51.6947
   XY=    24.5027   YY=   122.7485   ZY=    -2.4632
   XZ=    34.9519   YZ=     0.1020   ZZ=   128.1406
   Eigenvalues:    74.0198   125.5673   179.1026
      4  C    Isotropic =   125.4787   Anisotropy =    81.6336
   XX=   158.5933   YX=    42.2767   ZX=     3.6907
   XY=    27.9702   YY=    96.9583   ZY=    21.6406
   XZ=    10.9117   YZ=    29.5341   ZZ=   120.8846
   Eigenvalues:    72.0782   124.4569   179.9011
      5  C    Isotropic =   122.4630   Anisotropy =    85.3429
   XX=   173.1615   YX=     6.9371   ZX=    11.6983
   XY=    11.7064   YY=   118.6373   ZY=     4.8366
   XZ=    31.0743   YZ=     5.6290   ZZ=    75.5902
   Eigenvalues:    70.8882   117.1425   179.3583
      6  H    Isotropic =    28.5553   Anisotropy =     4.7562
   XX=    29.2016   YX=    -1.3398   ZX=    -1.8292
   XY=    -2.5043   YY=    29.5601   ZY=    -0.4890
   XZ=    -2.3127   YZ=     0.2981   ZZ=    26.9042
   Eigenvalues:    25.3798    28.5600    31.7261
      7  H    Isotropic =    28.3466   Anisotropy =     5.3116
   XX=    28.0601   YX=     0.0718   ZX=    -3.0911
   XY=    -0.4013   YY=    29.0624   ZY=    -3.1843
   XZ=    -1.9564   YZ=    -2.1317   ZZ=    27.9175
   Eigenvalues:    24.4675    28.6848    31.8877
      8  H    Isotropic =    28.3232   Anisotropy =     7.0111
   XX=    28.8206   YX=    -2.5679   ZX=    -3.7064
   XY=    -1.8217   YY=    27.7475   ZY=     1.3018
   XZ=    -2.6218   YZ=     1.3751   ZZ=    28.4015
   Eigenvalues:    25.2599    26.7124    32.9973
      9  H    Isotropic =    28.2749   Anisotropy =     5.1927
   XX=    27.8151   YX=    -2.2255   ZX=    -0.5457
   XY=    -1.1503   YY=    30.3959   ZY=    -1.5764
   XZ=    -0.3322   YZ=    -2.3326   ZZ=    26.6137
   Eigenvalues:    25.2758    27.8122    31.7367
     10  H    Isotropic =    28.7384   Anisotropy =     3.1290
   XX=    28.5921   YX=    -1.4768   ZX=    -1.1801
   XY=    -1.7335   YY=    28.2289   ZY=    -0.1918
   XZ=    -1.8447   YZ=    -0.4544   ZZ=    29.3943
   Eigenvalues:    26.2600    29.1308    30.8244
     11  Fe   Isotropic = -4995.7994   Anisotropy =  8997.4641
   XX= -1613.7659   YX=  2113.9472   ZX=  3480.7619
   XY=  2143.0500   YY= -7312.4040   ZY=  1137.4977
   XZ=  3495.0656   YZ=  1159.8485   ZZ= -6061.2282
   Eigenvalues: -8021.1170 -7968.7911  1002.5101
     12  C    Isotropic =   125.9382   Anisotropy =    77.3983
   XX=   156.2399   YX=    -1.2596   ZX=    27.2007
   XY=    14.6780   YY=    72.3266   ZY=    12.2112
   XZ=    21.2309   YZ=    -9.8281   ZZ=   149.2482
   Eigenvalues:    71.7860   128.4916   177.5371
     13  C    Isotropic =   107.2030   Anisotropy =    82.4392
   XX=   103.7282   YX=     8.5999   ZX=    50.8056
   XY=    -0.9269   YY=    91.8585   ZY=    33.6895
   XZ=    26.4484   YZ=    15.7544   ZZ=   126.0223
   Eigenvalues:    67.3385    92.1080   162.1624
     14  C    Isotropic =   112.5276   Anisotropy =    84.8639
   XX=    99.2077   YX=    38.3655   ZX=    32.4697
   XY=    22.5640   YY=   113.8013   ZY=    24.8415
   XZ=    16.2997   YZ=    31.7173   ZZ=   124.5737
   Eigenvalues:    75.0806    93.3986   169.1035
     15  C    Isotropic =   124.7501   Anisotropy =    74.6346
   XX=   149.5272   YX=    28.1633   ZX=     4.5496
   XY=    14.1342   YY=   131.4173   ZY=    25.0208
   XZ=     9.7144   YZ=    52.2030   ZZ=    93.3060
   Eigenvalues:    68.9561   130.7877   174.5065
     16  C    Isotropic =   125.7987   Anisotropy =    74.7310
   XX=   160.8405   YX=    15.1787   ZX=    22.1895
   XY=    22.5064   YY=   124.3786   ZY=   -16.6774
   XZ=    37.9508   YZ=   -10.7721   ZZ=    92.1771
   Eigenvalues:    73.2075   128.5693   175.6194
     17  H    Isotropic =    28.1644   Anisotropy =     3.6325
   XX=    27.5866   YX=    -0.4789   ZX=    -2.9631
   XY=    -2.1703   YY=    29.5872   ZY=    -0.8466
   XZ=    -2.3957   YZ=    -0.3176   ZZ=    27.3194
   Eigenvalues:    24.4217    29.4855    30.5861
     18  H    Isotropic =    28.5268   Anisotropy =     6.6188
   XX=    25.2855   YX=    -3.0029   ZX=    -2.7445
   XY=    -2.5210   YY=    31.9426   ZY=    -1.2560
   XZ=    -3.9243   YZ=    -1.1434   ZZ=    28.3521
   Eigenvalues:    22.2357    30.4052    32.9393
     19  H    Isotropic =    28.1253   Anisotropy =     7.6880
   XX=    27.3154   YX=    -1.4715   ZX=    -3.4283
   XY=    -2.0072   YY=    27.4864   ZY=     1.2658
   XZ=    -4.2052   YZ=     1.5652   ZZ=    29.5740
   Eigenvalues:    24.3475    26.7778    33.2506
     20  C    Isotropic =   158.8828   Anisotropy =    18.6432
   XX=   169.5941   YX=     8.1406   ZX=    -6.3345
   XY=     0.6515   YY=   144.8883   ZY=     1.4359
   XZ=     0.4605   YZ=    -2.2203   ZZ=   162.1660
   Eigenvalues:   144.1287   161.2081   171.3116
     21  H    Isotropic =    29.3610   Anisotropy =     7.4149
   XX=    26.5711   YX=     0.4208   ZX=    -4.2993
   XY=     1.6225   YY=    33.9783   ZY=     0.0253
   XZ=     0.2780   YZ=     2.6911   ZZ=    27.5337
   Eigenvalues:    24.6928    29.0859    34.3043
     22  P    Isotropic =   420.0694   Anisotropy =    25.5880
   XX=   420.4690   YX=   -37.0045   ZX=     6.9443
   XY=     0.5938   YY=   417.1960   ZY=     7.2729
   XZ=     3.3302   YZ=     2.5702   ZZ=   422.5431
   Eigenvalues:   398.4608   424.6193   437.1280
     23  C    Isotropic =   176.5685   Anisotropy =    13.9950
   XX=   178.2041   YX=    -0.9856   ZX=     1.4072
   XY=     1.0360   YY=   177.6406   ZY=   -11.9341
   XZ=     0.3368   YZ=    -7.9300   ZZ=   173.8608
   Eigenvalues:   165.6029   178.2041   185.8985
     24  H    Isotropic =    30.3364   Anisotropy =     9.7452
   XX=    29.9787   YX=    -0.9981   ZX=    -3.1290
   XY=     0.1275   YY=    27.4097   ZY=    -5.5625
   XZ=    -2.0758   YZ=    -3.9112   ZZ=    33.6208
   Eigenvalues:    24.3523    29.8237    36.8331
     25  H    Isotropic =    30.1481   Anisotropy =     8.0158
   XX=    35.0459   YX=     0.2356   ZX=     0.7878
   XY=    -0.9145   YY=    28.0382   ZY=    -2.9318
   XZ=     2.4752   YZ=    -2.4755   ZZ=    27.3601
   Eigenvalues:    24.8730    30.0792    35.4919
     26  H    Isotropic =    30.4088   Anisotropy =     5.6461
   XX=    29.4641   YX=     2.0708   ZX=     0.0302
   XY=    -1.3059   YY=    33.4051   ZY=     0.9085
   XZ=     2.2350   YZ=     2.9493   ZZ=    28.3572
   Eigenvalues:    27.2766    29.7770    34.1729
     27  P    Isotropic =   427.9603   Anisotropy =    66.5974
   XX=   395.8540   YX=   -11.7553   ZX=    -5.5259
   XY=   -27.3763   YY=   441.7410   ZY=     5.4602
   XZ=   -12.6424   YZ=    40.4973   ZZ=   446.2858
   Eigenvalues:   388.6371   422.8851   472.3586
     28  C    Isotropic =    56.4884   Anisotropy =   183.1997
   XX=    75.9504   YX=   -50.1726   ZX=    72.0570
   XY=   -50.5749   YY=    19.0210   ZY=   -65.5929
   XZ=    57.0380   YZ=   -56.2360   ZZ=    74.4940
   Eigenvalues:   -21.3252    12.1689   178.6216
     29  C    Isotropic =    69.6696   Anisotropy =   171.3378
   XX=   101.0795   YX=   -48.6566   ZX=    49.2400
   XY=   -49.7114   YY=    14.8559   ZY=   -66.6474
   XZ=    45.7267   YZ=   -65.5525   ZZ=    93.0736
   Eigenvalues:   -26.5176    51.6317   183.8948
     30  C    Isotropic =    66.7498   Anisotropy =   173.7537
   XX=    58.6014   YX=   -71.2432   ZX=    74.3257
   XY=   -73.5765   YY=    48.9365   ZY=   -17.9068
   XZ=    76.2829   YZ=   -21.1348   ZZ=    92.7114
   Eigenvalues:   -33.1253    50.7890   182.5855
     31  C    Isotropic =    65.3629   Anisotropy =   174.2064
   XX=    76.5638   YX=   -20.3199   ZX=    90.0049
   XY=   -28.7036   YY=    69.9821   ZY=   -47.2957
   XZ=    95.7489   YZ=   -54.4175   ZZ=    49.5427
   Eigenvalues:   -36.2480    50.8361   181.5005
     32  C    Isotropic =    64.7425   Anisotropy =   175.5653
   XX=    66.9151   YX=   -77.9064   ZX=    68.4501
   XY=   -68.0028   YY=    52.5708   ZY=   -12.2716
   XZ=    89.8643   YZ=   -19.1085   ZZ=    74.7416
   Eigenvalues:   -34.8455    47.2870   181.7861
     33  C    Isotropic =    67.3291   Anisotropy =   173.3719
   XX=    82.0816   YX=   -21.7673   ZX=    88.1848
   XY=   -22.4020   YY=    69.1334   ZY=   -54.9038
   XZ=    92.6237   YZ=   -54.6874   ZZ=    50.7722
   Eigenvalues:   -33.9524    53.0293   182.9103
     34  H    Isotropic =    25.0975   Anisotropy =     3.8260
   XX=    24.9916   YX=     2.3383   ZX=    -2.3516
   XY=     1.8139   YY=    25.5471   ZY=     1.3554
   XZ=    -2.5744   YZ=     1.4131   ZZ=    24.7538
   Eigenvalues:    21.0691    26.5752    27.6482
     35  H    Isotropic =    25.0103   Anisotropy =     6.3070
   XX=    23.7071   YX=     2.3292   ZX=    -1.4139
   XY=     1.2778   YY=    26.8386   ZY=     3.1193
   XZ=    -1.3699   YZ=     3.3845   ZZ=    24.4852
   Eigenvalues:    20.6356    25.1803    29.2150
     36  H    Isotropic =    25.2229   Anisotropy =    13.6332
   XX=    22.9966   YX=     7.6120   ZX=     1.3746
   XY=     4.4770   YY=    29.6496   ZY=     3.8680
   XZ=    -0.6842   YZ=     3.8041   ZZ=    23.0226
   Eigenvalues:    18.6506    22.7065    34.3117
     37  H    Isotropic =    24.9478   Anisotropy =    13.3070
   XX=    23.3818   YX=     6.6863   ZX=     0.0385
   XY=     3.8598   YY=    26.7888   ZY=     4.9696
   XZ=    -0.4679   YZ=     7.8833   ZZ=    24.6726
   Eigenvalues:    16.8950    24.1291    33.8191
     38  H    Isotropic =    24.9488   Anisotropy =     7.7783
   XX=    23.7664   YX=     3.7509   ZX=    -0.7028
   XY=     2.9337   YY=    27.7229   ZY=     2.3929
   XZ=    -0.7580   YZ=     2.5683   ZZ=    23.3571
   Eigenvalues:    20.4841    24.2281    30.1343
     39  C    Isotropic =    58.5701   Anisotropy =   193.1487
   XX=   106.0323   YX=    75.7813   ZX=    62.8304
   XY=    74.1364   YY=    60.6698   ZY=    23.6989
   XZ=    66.3458   YZ=    28.2119   ZZ=     9.0082
   Eigenvalues:   -25.4440    13.8184   187.3359
     40  C    Isotropic =    64.4311   Anisotropy =   181.2884
   XX=   109.0943   YX=    63.6899   ZX=    72.1845
   XY=    62.9857   YY=    80.4556   ZY=    16.1614
   XZ=    72.4551   YZ=    17.1245   ZZ=     3.7432
   Eigenvalues:   -35.1259    43.1292   185.2900
     41  C    Isotropic =    66.4530   Anisotropy =   175.6242
   XX=   129.0556   YX=    59.8359   ZX=    33.0403
   XY=    59.1987   YY=    46.6444   ZY=    65.9259
   XZ=    29.9072   YZ=    67.1356   ZZ=    23.6589
   Eigenvalues:   -33.9138    49.7369   183.5358
     42  C    Isotropic =    56.8965   Anisotropy =   181.2494
   XX=    95.5709   YX=    96.6139   ZX=    51.1408
   XY=    89.4794   YY=    13.8238   ZY=    22.2222
   XZ=    39.8077   YZ=    20.9481   ZZ=    61.2948
   Eigenvalues:   -47.4086    40.3687   177.7294
     43  C    Isotropic =    55.2811   Anisotropy =   176.8162
   XX=   119.0327   YX=    62.3443   ZX=    25.7683
   XY=    60.2277   YY=    37.9343   ZY=    68.8399
   XZ=    30.3136   YZ=    66.2397   ZZ=     8.8762
   Eigenvalues:   -47.7242    40.4088   173.1586
     44  C    Isotropic =    65.7811   Anisotropy =   177.5833
   XX=    99.8982   YX=    96.9767   ZX=    40.8412
   XY=    94.1431   YY=    34.1128   ZY=    17.4746
   XZ=    42.6817   YZ=    17.0534   ZZ=    63.3323
   Eigenvalues:   -35.2253    48.3986   184.1700
     45  H    Isotropic =    24.5932   Anisotropy =     4.0554
   XX=    23.2410   YX=    -1.7620   ZX=    -1.6787
   XY=    -1.7766   YY=    25.8119   ZY=    -1.9883
   XZ=    -1.6910   YZ=    -1.7913   ZZ=    24.7268
   Eigenvalues:    20.8489    25.6339    27.2968
     46  H    Isotropic =    24.6233   Anisotropy =     5.8393
   XX=    23.3800   YX=    -1.5803   ZX=    -3.2465
   XY=    -1.7629   YY=    24.3970   ZY=    -0.2288
   XZ=    -3.4058   YZ=     0.0266   ZZ=    26.0927
   Eigenvalues:    20.5840    24.7696    28.5161
     47  H    Isotropic =    23.9413   Anisotropy =    10.9481
   XX=    21.8881   YX=     2.5558   ZX=    -3.5847
   XY=     0.9229   YY=    21.4217   ZY=    -3.5201
   XZ=    -3.8420   YZ=    -1.9927   ZZ=    28.5143
   Eigenvalues:    19.8491    20.7349    31.2401
     48  H    Isotropic =    23.9171   Anisotropy =     7.5714
   XX=    26.0898   YX=    -1.7227   ZX=    -4.2224
   XY=    -0.5304   YY=    24.2077   ZY=     1.2770
   XZ=    -3.8374   YZ=     1.2342   ZZ=    21.4539
   Eigenvalues:    19.0667    23.7199    28.9647
     49  H    Isotropic =    24.5185   Anisotropy =     6.3960
   XX=    24.1837   YX=    -0.2109   ZX=    -3.3740
   XY=    -0.1273   YY=    23.4523   ZY=    -1.7148
   XZ=    -3.2526   YZ=    -1.7121   ZZ=    25.9195
   Eigenvalues:    21.0037    23.7693    28.7824
     50  C    Isotropic =   158.5036   Anisotropy =    16.0342
   XX=   152.1359   YX=     0.4931   ZX=    -5.0383
   XY=     2.8898   YY=   157.8390   ZY=    -9.4036
   XZ=    -0.6163   YZ=    -1.9801   ZZ=   165.5360
   Eigenvalues:   151.4930   154.8248   169.1931
     51  C    Isotropic =   160.3463   Anisotropy =     5.7273
   XX=   159.4513   YX=     1.3063   ZX=    -2.6558
   XY=     4.7041   YY=   161.8624   ZY=     3.7517
   XZ=    -5.4711   YZ=     0.2277   ZZ=   159.7254
   Eigenvalues:   153.9306   162.9439   164.1646
     52  C    Isotropic =   162.1083   Anisotropy =    19.7028
   XX=   154.7414   YX=    10.5693   ZX=    -2.3705
   XY=     5.2497   YY=   166.1487   ZY=    -7.7561
   XZ=    -3.0499   YZ=    -5.2674   ZZ=   165.4349
   Eigenvalues:   150.6685   160.4130   175.2436
     53  H    Isotropic =    30.1081   Anisotropy =    11.5927
   XX=    27.8172   YX=     3.7160   ZX=    -5.9483
   XY=     4.1731   YY=    35.7870   ZY=    -2.2331
   XZ=    -2.7093   YZ=     1.3554   ZZ=    26.7202
   Eigenvalues:    22.4781    30.0097    37.8366
     54  C    Isotropic =   164.4842   Anisotropy =     6.3813
   XX=   159.2868   YX=     5.5515   ZX=    -1.9367
   XY=    -3.9305   YY=   168.6599   ZY=     1.9222
   XZ=    -0.4742   YZ=    -1.3824   ZZ=   165.5059
   Eigenvalues:   158.9872   165.7270   168.7384
     55  H    Isotropic =    30.2749   Anisotropy =     8.5102
   XX=    25.0518   YX=    -1.4017   ZX=    -2.8200
   XY=    -0.9456   YY=    32.9925   ZY=    -2.8511
   XZ=    -2.6811   YZ=    -3.0325   ZZ=    32.7805
   Eigenvalues:    23.7061    31.1702    35.9484
     56  H    Isotropic =    29.8779   Anisotropy =     4.4001
   XX=    32.5909   YX=    -0.9248   ZX=    -0.0645
   XY=    -1.1979   YY=    27.0171   ZY=    -0.2365
   XZ=     0.6057   YZ=     0.2482   ZZ=    30.0258
   Eigenvalues:    26.8209    30.0016    32.8114
     57  C    Isotropic =   164.6953   Anisotropy =     6.9340
   XX=   162.3522   YX=     1.1931   ZX=    -1.5064
   XY=     8.1760   YY=   166.1260   ZY=     3.4810
   XZ=    -3.5900   YZ=    -0.7335   ZZ=   165.6077
   Eigenvalues:   158.0848   166.6832   169.3180
     58  H    Isotropic =    28.6240   Anisotropy =    10.7910
   XX=    31.0012   YX=    -4.4301   ZX=    -2.5530
   XY=    -5.5686   YY=    28.1689   ZY=     1.8421
   XZ=    -1.7855   YZ=     2.6050   ZZ=    26.7020
   Eigenvalues:    24.2498    25.8042    35.8180
     59  H    Isotropic =    30.2921   Anisotropy =     7.3049
   XX=    29.6558   YX=     3.3520   ZX=    -2.7803
   XY=     2.6848   YY=    29.4849   ZY=    -1.6877
   XZ=    -2.3997   YZ=    -1.4333   ZZ=    31.7355
   Eigenvalues:    26.4299    29.2844    35.1620
     60  C    Isotropic =   164.9492   Anisotropy =     5.3023
   XX=   164.4211   YX=     0.7980   ZX=    -3.1504
   XY=     1.5856   YY=   166.1213   ZY=    -5.9712
   XZ=    -0.1970   YZ=     1.6522   ZZ=   164.3053
   Eigenvalues:   162.4420   163.9215   168.4841
     61  H    Isotropic =    30.2330   Anisotropy =    10.5914
   XX=    30.9972   YX=    -4.3953   ZX=    -2.2825
   XY=    -5.2187   YY=    31.0927   ZY=     2.4035
   XZ=    -2.1910   YZ=     3.1198   ZZ=    28.6089
   Eigenvalues:    26.1327    27.2723    37.2939
     62  H    Isotropic =    30.6668   Anisotropy =    10.5305
   XX=    30.7814   YX=     7.0028   ZX=    -4.1737
   XY=     3.4713   YY=    32.0164   ZY=    -0.8097
   XZ=    -3.7839   YZ=     0.3574   ZZ=    29.2025
   Eigenvalues:    24.2696    30.0436    37.6871
     63  H    Isotropic =    30.3496   Anisotropy =     9.1388
   XX=    32.9187   YX=     0.0921   ZX=     3.7892
   XY=    -0.1711   YY=    26.4754   ZY=     2.1258
   XZ=     3.9459   YZ=     2.6098   ZZ=    31.6549
   Eigenvalues:    25.2097    29.3970    36.4422
     64  H    Isotropic =    31.2664   Anisotropy =     5.9599
   XX=    27.9717   YX=     0.4191   ZX=    -0.4755
   XY=     0.9762   YY=    33.5742   ZY=    -2.3199
   XZ=    -0.3829   YZ=    -1.9489   ZZ=    32.2533
   Eigenvalues:    27.8783    30.6812    35.2397
     65  H    Isotropic =    30.6764   Anisotropy =     9.0260
   XX=    28.4134   YX=     2.4577   ZX=    -0.0064
   XY=     2.2219   YY=    35.3503   ZY=     1.5543
   XZ=     0.4809   YZ=     3.1057   ZZ=    28.2655
   Eigenvalues:    27.2284    28.1070    36.6938
     66  H    Isotropic =    30.4709   Anisotropy =    10.9837
   XX=    27.4094   YX=    -0.1658   ZX=    -0.7579
   XY=    -0.7743   YY=    27.4145   ZY=     3.1720
   XZ=    -0.8813   YZ=     3.6256   ZZ=    36.5890
   Eigenvalues:    26.2592    27.3602    37.7934
     67  C    Isotropic =   154.9762   Anisotropy =    21.7668
   XX=   148.9085   YX=    -0.7852   ZX=   -10.1124
   XY=     3.5634   YY=   151.5099   ZY=     2.4741
   XZ=    -9.9856   YZ=    -3.3553   ZZ=   164.5103
   Eigenvalues:   143.8423   151.5989   169.4874
     68  C    Isotropic =   159.3749   Anisotropy =     9.1861
   XX=   153.1413   YX=     4.0243   ZX=     0.2053
   XY=     2.5960   YY=   161.6246   ZY=    -4.3407
   XZ=    -5.8790   YZ=     1.6423   ZZ=   163.3589
   Eigenvalues:   151.5597   161.0661   165.4990
     69  C    Isotropic =   159.5531   Anisotropy =    10.7801
   XX=   155.5252   YX=    -4.3689   ZX=    -0.0250
   XY=     0.0111   YY=   164.7371   ZY=    -4.9290
   XZ=     6.1255   YZ=    -0.7752   ZZ=   158.3971
   Eigenvalues:   153.5793   158.3402   166.7399
     70  H    Isotropic =    30.3614   Anisotropy =     4.8977
   XX=    25.9981   YX=    -3.6473   ZX=    -0.6070
   XY=    -2.2614   YY=    32.3225   ZY=     0.5303
   XZ=    -0.5157   YZ=    -1.6899   ZZ=    32.7637
   Eigenvalues:    24.7651    32.6926    33.6266
     71  C    Isotropic =   162.8732   Anisotropy =     6.0793
   XX=   156.3708   YX=    -1.1232   ZX=    -3.5674
   XY=     4.9698   YY=   166.0744   ZY=    -1.6655
   XZ=     2.9550   YZ=     0.5568   ZZ=   166.1743
   Eigenvalues:   155.9996   165.6938   166.9260
     72  H    Isotropic =    30.1446   Anisotropy =     6.9097
   XX=    26.2799   YX=     1.8654   ZX=    -0.0579
   XY=     2.0061   YY=    29.9361   ZY=    -1.5756
   XZ=    -0.6883   YZ=    -1.2601   ZZ=    34.2179
   Eigenvalues:    25.4397    30.2430    34.7511
     73  H    Isotropic =    28.5370   Anisotropy =     9.5743
   XX=    29.5806   YX=    -3.5622   ZX=     0.0081
   XY=    -2.7928   YY=    31.2509   ZY=    -4.3730
   XZ=    -0.2073   YZ=    -4.2370   ZZ=    24.7795
   Eigenvalues:    22.2845    28.4066    34.9199
     74  C    Isotropic =   162.7206   Anisotropy =     5.2169
   XX=   157.9185   YX=     1.4984   ZX=    -1.2847
   XY=    -2.8638   YY=   165.9703   ZY=    -3.5265
   XZ=    -5.7864   YZ=     2.4087   ZZ=   164.2728
   Eigenvalues:   156.2676   165.6956   166.1985
     75  H    Isotropic =    30.0274   Anisotropy =     6.5985
   XX=    33.7301   YX=     1.2208   ZX=     1.8248
   XY=     1.6242   YY=    28.5166   ZY=    -2.8106
   XZ=     2.2917   YZ=    -3.1318   ZZ=    27.8354
   Eigenvalues:    24.5153    31.1404    34.4264
     76  H    Isotropic =    30.2961   Anisotropy =     7.2009
   XX=    27.1175   YX=    -3.5101   ZX=    -3.7227
   XY=    -2.4077   YY=    30.0575   ZY=    -1.8318
   XZ=    -2.8197   YZ=    -1.4107   ZZ=    33.7133
   Eigenvalues:    23.9310    31.8606    35.0967
     77  C    Isotropic =   164.8553   Anisotropy =     5.6912
   XX=   163.6212   YX=    -0.5642   ZX=    -0.2062
   XY=    -2.0857   YY=   162.5473   ZY=     4.7075
   XZ=    -1.6396   YZ=    -3.8149   ZZ=   168.3974
   Eigenvalues:   161.6513   164.2652   168.6494
     78  H    Isotropic =    30.0476   Anisotropy =     9.0142
   XX=    33.8679   YX=     3.3995   ZX=     0.3304
   XY=     3.6577   YY=    30.1238   ZY=    -2.0872
   XZ=     0.3271   YZ=    -2.0834   ZZ=    26.1510
   Eigenvalues:    24.8715    29.2142    36.0570
     79  H    Isotropic =    30.5316   Anisotropy =     7.4849
   XX=    29.0142   YX=    -2.4469   ZX=    -4.5698
   XY=    -1.4009   YY=    29.9406   ZY=    -0.7896
   XZ=    -3.9542   YZ=    -0.3866   ZZ=    32.6400
   Eigenvalues:    25.3747    30.6986    35.5215
     80  H    Isotropic =    30.1311   Anisotropy =    10.8996
   XX=    31.7030   YX=    -4.2560   ZX=     1.7771
   XY=    -4.1935   YY=    31.5624   ZY=    -3.6501
   XZ=     1.8613   YZ=    -3.8812   ZZ=    27.1280
   Eigenvalues:    24.9146    28.0812    37.3975
     81  H    Isotropic =    30.5754   Anisotropy =     8.3053
   XX=    27.7788   YX=     0.3380   ZX=     2.4700
   XY=     0.5350   YY=    28.3749   ZY=    -0.7193
   XZ=     1.7092   YZ=    -0.1988   ZZ=    35.5725
   Eigenvalues:    27.0376    28.5762    36.1123
     82  H    Isotropic =    30.5519   Anisotropy =     7.8827
   XX=    27.5741   YX=     0.1143   ZX=     0.0527
   XY=    -0.0933   YY=    34.9899   ZY=     2.9541
   XZ=    -0.0946   YZ=     1.7309   ZZ=    29.0917
   Eigenvalues:    27.5734    28.2754    35.8071
     83  H    Isotropic =    30.2282   Anisotropy =    11.4343
   XX=    28.0719   YX=     1.5000   ZX=    -1.4761
   XY=     1.6555   YY=    32.4707   ZY=    -5.8736
   XZ=    -1.4815   YZ=    -6.0379   ZZ=    30.1420
   Eigenvalues:    25.2301    27.6035    37.8511
 End of Minotr F.D. properties file   721 does not exist.
 End of Minotr F.D. properties file   722 does not exist.
 End of Minotr F.D. properties file   788 does not exist.
 Leave Link 1002 at Sat Aug 12 03:28:05 2023, MaxMem=  4026531840 cpu:            4055.2 elap:             139.6
 (Enter /sw/arch/Centos8/EB_production/2021/software/Gaussian/g16.c01/l601.exe)
 Copying SCF densities to generalized density rwf, IOpCl= 0 IROHF=0.

 **********************************************************************

            Population analysis using the SCF Density.

 **********************************************************************

 Alpha  occ. eigenvalues -- -256.34784 -77.18504 -77.17553 -30.12229 -25.97070
 Alpha  occ. eigenvalues --  -25.95199 -25.95178 -10.24942 -10.24815 -10.24774
 Alpha  occ. eigenvalues --  -10.24595 -10.24499 -10.24456 -10.24329 -10.24325
 Alpha  occ. eigenvalues --  -10.24315 -10.24094 -10.24036 -10.24010 -10.23993
 Alpha  occ. eigenvalues --  -10.23943 -10.23936 -10.23923 -10.23879 -10.23787
 Alpha  occ. eigenvalues --  -10.23403 -10.23197 -10.23162 -10.23123 -10.23076
 Alpha  occ. eigenvalues --  -10.23063 -10.22973 -10.22661 -10.22174 -10.22120
 Alpha  occ. eigenvalues --  -10.22117 -10.22080 -10.22068 -10.22052 -10.22031
 Alpha  occ. eigenvalues --  -10.21998 -10.21877 -10.21857  -6.59523  -6.58558
 Alpha  occ. eigenvalues --   -4.73591  -4.73547  -4.73027  -4.72626  -4.72591
 Alpha  occ. eigenvalues --   -4.72062  -3.45371  -2.24327  -2.19615  -2.19584
 Alpha  occ. eigenvalues --   -0.91883  -0.90114  -0.88259  -0.86930  -0.85643
 Alpha  occ. eigenvalues --   -0.84915  -0.81307  -0.77621  -0.77538  -0.76912
 Alpha  occ. eigenvalues --   -0.75800  -0.75740  -0.75534  -0.75367  -0.75161
 Alpha  occ. eigenvalues --   -0.73170  -0.72831  -0.72760  -0.71595  -0.66793
 Alpha  occ. eigenvalues --   -0.65123  -0.62902  -0.62546  -0.62256  -0.61633
 Alpha  occ. eigenvalues --   -0.61355  -0.61348  -0.60940  -0.58192  -0.57213
 Alpha  occ. eigenvalues --   -0.56952  -0.56545  -0.55858  -0.55539  -0.55195
 Alpha  occ. eigenvalues --   -0.54465  -0.53451  -0.52473  -0.50985  -0.50393
 Alpha  occ. eigenvalues --   -0.49240  -0.47833  -0.47534  -0.47289  -0.46338
 Alpha  occ. eigenvalues --   -0.46011  -0.45773  -0.45655  -0.45227  -0.44913
 Alpha  occ. eigenvalues --   -0.44780  -0.44272  -0.43836  -0.43199  -0.43037
 Alpha  occ. eigenvalues --   -0.42789  -0.42548  -0.42411  -0.42031  -0.41807
 Alpha  occ. eigenvalues --   -0.41550  -0.40374  -0.39988  -0.39672  -0.39432
 Alpha  occ. eigenvalues --   -0.39333  -0.39021  -0.38965  -0.38727  -0.38608
 Alpha  occ. eigenvalues --   -0.38349  -0.38027  -0.37911  -0.37231  -0.36988
 Alpha  occ. eigenvalues --   -0.36531  -0.36079  -0.35902  -0.35501  -0.35307
 Alpha  occ. eigenvalues --   -0.34486  -0.34312  -0.33471  -0.33278  -0.32927
 Alpha  occ. eigenvalues --   -0.32013  -0.31739  -0.31010  -0.30918  -0.28754
 Alpha  occ. eigenvalues --   -0.28336  -0.28023  -0.27634  -0.27395  -0.27266
 Alpha  occ. eigenvalues --   -0.26760  -0.26172  -0.25449  -0.24533  -0.22665
 Alpha  occ. eigenvalues --   -0.21496  -0.21195  -0.17622
 Alpha virt. eigenvalues --   -0.02833  -0.01256  -0.00668  -0.00065   0.00252
 Alpha virt. eigenvalues --    0.00507   0.03720   0.04332   0.05558   0.06082
 Alpha virt. eigenvalues --    0.06191   0.06216   0.06749   0.07090   0.07487
 Alpha virt. eigenvalues --    0.07705   0.08270   0.08756   0.09170   0.09375
 Alpha virt. eigenvalues --    0.09410   0.09985   0.10195   0.10575   0.11274
 Alpha virt. eigenvalues --    0.11458   0.11948   0.12012   0.12131   0.12362
 Alpha virt. eigenvalues --    0.12862   0.13353   0.13736   0.13945   0.14114
 Alpha virt. eigenvalues --    0.14324   0.14661   0.14697   0.15082   0.15440
 Alpha virt. eigenvalues --    0.15555   0.15795   0.15830   0.16215   0.16578
 Alpha virt. eigenvalues --    0.16607   0.16788   0.17158   0.17271   0.17629
 Alpha virt. eigenvalues --    0.17863   0.17944   0.18513   0.18711   0.19171
 Alpha virt. eigenvalues --    0.19357   0.19851   0.20181   0.20969   0.21237
 Alpha virt. eigenvalues --    0.21443   0.21943   0.22728   0.23112   0.23326
 Alpha virt. eigenvalues --    0.23996   0.24392   0.24916   0.25299   0.25448
 Alpha virt. eigenvalues --    0.25885   0.26216   0.26747   0.26838   0.27282
 Alpha virt. eigenvalues --    0.27627   0.28085   0.28624   0.29175   0.29458
 Alpha virt. eigenvalues --    0.29678   0.29925   0.30227   0.30462   0.30482
 Alpha virt. eigenvalues --    0.30648   0.31149   0.31949   0.32647   0.33436
 Alpha virt. eigenvalues --    0.33957   0.34452   0.35250   0.35510   0.36643
 Alpha virt. eigenvalues --    0.37751   0.38061   0.38751   0.39356   0.39738
 Alpha virt. eigenvalues --    0.40465   0.40973   0.42444   0.43100   0.43193
 Alpha virt. eigenvalues --    0.43413   0.43719   0.44124   0.44544   0.44785
 Alpha virt. eigenvalues --    0.45056   0.45849   0.46043   0.46151   0.46590
 Alpha virt. eigenvalues --    0.46864   0.47097   0.47307   0.47495   0.47803
 Alpha virt. eigenvalues --    0.47992   0.48306   0.48910   0.49562   0.49611
 Alpha virt. eigenvalues --    0.49851   0.50023   0.50401   0.50799   0.51282
 Alpha virt. eigenvalues --    0.51604   0.51849   0.52499   0.52923   0.53446
 Alpha virt. eigenvalues --    0.53917   0.54594   0.54999   0.55748   0.56289
 Alpha virt. eigenvalues --    0.56913   0.57368   0.57895   0.58179   0.58520
 Alpha virt. eigenvalues --    0.58838   0.59190   0.59519   0.60109   0.60783
 Alpha virt. eigenvalues --    0.61242   0.61405   0.61551   0.62762   0.62999
 Alpha virt. eigenvalues --    0.63472   0.63867   0.64097   0.64561   0.64866
 Alpha virt. eigenvalues --    0.65001   0.65773   0.66187   0.66764   0.66954
 Alpha virt. eigenvalues --    0.67379   0.67617   0.67738   0.68161   0.68571
 Alpha virt. eigenvalues --    0.68822   0.68948   0.69308   0.69418   0.69817
 Alpha virt. eigenvalues --    0.70127   0.70230   0.70463   0.70734   0.70848
 Alpha virt. eigenvalues --    0.71082   0.71127   0.71377   0.71773   0.72014
 Alpha virt. eigenvalues --    0.72098   0.72248   0.72306   0.72595   0.72708
 Alpha virt. eigenvalues --    0.73066   0.73098   0.73315   0.73437   0.73732
 Alpha virt. eigenvalues --    0.74065   0.74237   0.74431   0.74800   0.74964
 Alpha virt. eigenvalues --    0.75101   0.75273   0.75331   0.75728   0.75775
 Alpha virt. eigenvalues --    0.76015   0.76175   0.76271   0.76510   0.76705
 Alpha virt. eigenvalues --    0.76892   0.77076   0.77507   0.77915   0.77982
 Alpha virt. eigenvalues --    0.78308   0.78424   0.78867   0.79178   0.79607
 Alpha virt. eigenvalues --    0.80092   0.80173   0.80414   0.80736   0.81363
 Alpha virt. eigenvalues --    0.81634   0.81804   0.82678   0.82810   0.83241
 Alpha virt. eigenvalues --    0.83292   0.84278   0.84898   0.85023   0.85291
 Alpha virt. eigenvalues --    0.85885   0.86311   0.86759   0.87552   0.87858
 Alpha virt. eigenvalues --    0.88083   0.88611   0.89166   0.90382   0.90674
 Alpha virt. eigenvalues --    0.90992   0.91586   0.92089   0.92529   0.92994
 Alpha virt. eigenvalues --    0.93364   0.94155   0.94733   0.95351   0.95645
 Alpha virt. eigenvalues --    0.96451   0.96724   0.97104   0.97443   0.98261
 Alpha virt. eigenvalues --    0.99191   0.99543   0.99785   1.01136   1.02287
 Alpha virt. eigenvalues --    1.02683   1.03558   1.04047   1.04884   1.05694
 Alpha virt. eigenvalues --    1.06049   1.08088   1.08389   1.09489   1.09946
[...]
   414. RY*(   2) C  44                  0.00273     0.68555   
   415. RY*(   3) C  44                  0.00082     0.75535   
   416. RY*(   4) C  44                  0.00078     0.71964   
   417. RY*(   5) C  44                  0.00071     1.86517   
   418. RY*(   6) C  44                  0.00015     2.33535   
   419. RY*(   7) C  44                  0.00005     2.15057   
   420. RY*(   8) C  44                  0.00001     1.84534   
   421. RY*(   9) C  44                  0.00001     2.01387   
   422. RY*(   1) H  45                  0.00167     0.32340   
   423. RY*(   1) H  46                  0.00179     0.32583   
   424. RY*(   1) H  47                  0.00205     0.45059   
   425. RY*(   1) H  48                  0.00247     0.43948   
   426. RY*(   1) H  49                  0.00161     0.33875   
   427. RY*(   1) C  50                  0.00505     1.12777   
   428. RY*(   2) C  50                  0.00273     0.85424   
   429. RY*(   3) C  50                  0.00216     1.12795   
   430. RY*(   4) C  50                  0.00155     1.07807   
   431. RY*(   5) C  50                  0.00048     2.13163   
   432. RY*(   6) C  50                  0.00036     1.96320   
   433. RY*(   7) C  50                  0.00023     2.03350   
   434. RY*(   8) C  50                  0.00016     1.95805   
   435. RY*(   9) C  50                  0.00014     1.94705   
   436. RY*(   1) C  51                  0.00605     1.05775   
   437. RY*(   2) C  51                  0.00306     0.89486   
   438. RY*(   3) C  51                  0.00114     0.89015   
   439. RY*(   4) C  51                  0.00075     1.02100   
   440. RY*(   5) C  51                  0.00029     1.85835   
   441. RY*(   6) C  51                  0.00020     1.83807   
   442. RY*(   7) C  51                  0.00013     2.16144   
   443. RY*(   8) C  51                  0.00002     2.05825   
   444. RY*(   9) C  51                  0.00002     2.05377   
   445. RY*(   1) C  52                  0.00574     1.07250   
   446. RY*(   2) C  52                  0.00373     0.88472   
   447. RY*(   3) C  52                  0.00160     0.82630   
   448. RY*(   4) C  52                  0.00093     1.06734   
   449. RY*(   5) C  52                  0.00028     1.89673   
   450. RY*(   6) C  52                  0.00025     1.95070   
   451. RY*(   7) C  52                  0.00014     2.24686   
   452. RY*(   8) C  52                  0.00003     2.06536   
   453. RY*(   9) C  52                  0.00003     2.03948   
   454. RY*(   1) H  53                  0.00603     0.75172   
   455. RY*(   1) C  54                  0.00590     1.03760   
   456. RY*(   2) C  54                  0.00167     1.11743   
   457. RY*(   3) C  54                  0.00129     0.70701   
   458. RY*(   4) C  54                  0.00057     1.05972   
   459. RY*(   5) C  54                  0.00033     1.84509   
   460. RY*(   6) C  54                  0.00015     2.20984   
   461. RY*(   7) C  54                  0.00007     1.71212   
   462. RY*(   8) C  54                  0.00002     1.96054   
   463. RY*(   9) C  54                  0.00001     1.94485   
   464. RY*(   1) H  55                  0.00328     0.52017   
   465. RY*(   1) H  56                  0.00297     0.44922   
   466. RY*(   1) C  57                  0.00609     1.04780   
   467. RY*(   2) C  57                  0.00186     1.07291   
   468. RY*(   3) C  57                  0.00124     0.73363   
   469. RY*(   4) C  57                  0.00060     1.04148   
   470. RY*(   5) C  57                  0.00032     1.85480   
   471. RY*(   6) C  57                  0.00015     2.20222   
   472. RY*(   7) C  57                  0.00006     1.79439   
   473. RY*(   8) C  57                  0.00001     1.97750   
   474. RY*(   9) C  57                  0.00002     1.91471   
   475. RY*(   1) H  58                  0.00671     0.76471   
   476. RY*(   1) H  59                  0.00325     0.55529   
   477. RY*(   1) C  60                  0.00533     1.04507   
   478. RY*(   2) C  60                  0.00167     1.13331   
   479. RY*(   3) C  60                  0.00122     0.69195   
   480. RY*(   4) C  60                  0.00046     1.03704   
   481. RY*(   5) C  60                  0.00032     1.83101   
   482. RY*(   6) C  60                  0.00015     2.21692   
   483. RY*(   7) C  60                  0.00006     1.73392   
   484. RY*(   8) C  60                  0.00002     1.92940   
   485. RY*(   9) C  60                  0.00002     1.93142   
   486. RY*(   1) H  61                  0.00228     0.36750   
   487. RY*(   1) H  62                  0.00355     0.56801   
   488. RY*(   1) H  63                  0.00235     0.37607   
   489. RY*(   1) H  64                  0.00269     0.43074   
   490. RY*(   1) H  65                  0.00299     0.39563   
   491. RY*(   1) H  66                  0.00229     0.36679   
   492. RY*(   1) C  67                  0.00497     1.13095   
   493. RY*(   2) C  67                  0.00322     0.83110   
   494. RY*(   3) C  67                  0.00258     1.17083   
   495. RY*(   4) C  67                  0.00145     1.04415   
   496. RY*(   5) C  67                  0.00048     2.06126   
   497. RY*(   6) C  67                  0.00031     2.03806   
   498. RY*(   7) C  67                  0.00023     1.85545   
   499. RY*(   8) C  67                  0.00015     2.00671   
   500. RY*(   9) C  67                  0.00012     2.04284   
   501. RY*(   1) C  68                  0.00555     1.08109   
   502. RY*(   2) C  68                  0.00338     0.91528   
   503. RY*(   3) C  68                  0.00137     0.87190   
   504. RY*(   4) C  68                  0.00101     0.98839   
   505. RY*(   5) C  68                  0.00028     1.89887   
   506. RY*(   6) C  68                  0.00021     1.85290   
   507. RY*(   7) C  68                  0.00015     2.23774   
   508. RY*(   8) C  68                  0.00003     2.07817   
   509. RY*(   9) C  68                  0.00003     2.02849   
   510. RY*(   1) C  69                  0.00627     1.03186   
   511. RY*(   2) C  69                  0.00323     0.85212   
   512. RY*(   3) C  69                  0.00110     0.93350   
   513. RY*(   4) C  69                  0.00067     0.99382   
   514. RY*(   5) C  69                  0.00029     1.86743   
   515. RY*(   6) C  69                  0.00017     1.83834   
   516. RY*(   7) C  69                  0.00013     2.15898   
   517. RY*(   8) C  69                  0.00002     2.01559   
   518. RY*(   9) C  69                  0.00002     2.06722   
   519. RY*(   1) H  70                  0.00400     0.48556   
   520. RY*(   1) C  71                  0.00600     1.03730   
   521. RY*(   2) C  71                  0.00184     1.06971   
   522. RY*(   3) C  71                  0.00126     0.73347   
   523. RY*(   4) C  71                  0.00053     1.03104   
   524. RY*(   5) C  71                  0.00032     1.84059   
   525. RY*(   6) C  71                  0.00015     2.20233   
   526. RY*(   7) C  71                  0.00007     1.78538   
   527. RY*(   8) C  71                  0.00001     1.97344   
   528. RY*(   9) C  71                  0.00002     1.91175   
   529. RY*(   1) H  72                  0.00320     0.51890   
   530. RY*(   1) H  73                  0.00571     0.67885   
   531. RY*(   1) C  74                  0.00595     1.03090   
   532. RY*(   2) C  74                  0.00168     1.13276   
   533. RY*(   3) C  74                  0.00124     0.69272   
   534. RY*(   4) C  74                  0.00052     1.04939   
   535. RY*(   5) C  74                  0.00033     1.84175   
   536. RY*(   6) C  74                  0.00016     2.21445   
   537. RY*(   7) C  74                  0.00006     1.72541   
   538. RY*(   8) C  74                  0.00001     1.98546   
   539. RY*(   9) C  74                  0.00002     1.87467   
   540. RY*(   1) H  75                  0.00317     0.38874   
   541. RY*(   1) H  76                  0.00324     0.50627   
   542. RY*(   1) C  77                  0.00524     1.04603   
   543. RY*(   2) C  77                  0.00164     1.14626   
   544. RY*(   3) C  77                  0.00121     0.69110   
   545. RY*(   4) C  77                  0.00044     1.02970   
   546. RY*(   5) C  77                  0.00033     1.82757   
   547. RY*(   6) C  77                  0.00015     2.21838   
   548. RY*(   7) C  77                  0.00006     1.72270   
   549. RY*(   8) C  77                  0.00001     1.83297   
   550. RY*(   9) C  77                  0.00002     2.02052   
   551. RY*(   1) H  78                  0.00248     0.37140   
   552. RY*(   1) H  79                  0.00290     0.41646   
   553. RY*(   1) H  80                  0.00225     0.36766   
   554. RY*(   1) H  81                  0.00298     0.39646   
   555. RY*(   1) H  82                  0.00300     0.39472   
   556. RY*(   1) H  83                  0.00231     0.36645   
   569. BD*(   1) C  12 - C  13          0.02617     0.53905   
   570. BD*(   1) C  12 - C  16          0.03018     0.52125   
   571. BD*(   2) C  12 - C  16          0.47932     0.04542  564(r),574(v),162(v),570(g)
                                                    157(r),160(r),558(r),222(g)
                                                    259(g),159(r),602(r),257(g)
                                                    592(r),223(g),219(r),156(r)
                                                    220(r),218(r),158(r),192(r)
   572. BD*(   1) C  12 - H  17          0.01659     0.48914   
   573. BD*(   1) C  13 - C  14          0.04656     0.51207   
   574. BD*(   2) C  13 - C  14          0.55532     0.02611  571(v),162(v),157(r),573(g)
                                                    159(r),583(v),584(v),577(g)
                                                    581(v),231(g),156(r),160(r)
                                                    241(g),242(g),564(r),558(r)
                                                    152(r),218(r),217(r),220(r)
   575. BD*(   1) C  13 - C  20          0.03809     0.46238   
   576. BD*(   1) C  14 - C  15          0.03386     0.51109   
   577. BD*(   1) C  14 - P  22          0.03504     0.27716   
   578. BD*(   1) C  15 - C  16          0.03017     0.53330   
   579. BD*(   1) C  15 - H  18          0.01728     0.49557   
   580. BD*(   1) C  16 - H  19          0.01603     0.49090   
   581. BD*(   1) C  20 - H  21          0.02078     0.47233   
   582. BD*(   1) C  20 - C  23          0.01919     0.41876   
   583. BD*(   1) C  20 - P  27          0.05331     0.20972   
   584. BD*(   1) P  22 - C  50          0.03977     0.24804   
   585. BD*(   1) P  22 - C  67          0.04216     0.25673   
   586. BD*(   1) C  23 - H  24          0.00643     0.47276   
   587. BD*(   1) C  23 - H  25          0.01157     0.46511   
   588. BD*(   1) C  23 - H  26          0.01002     0.46770   
   589. BD*(   1) P  27 - C  28          0.04008     0.27892   
   590. BD*(   1) P  27 - C  39          0.02709     0.27190   
   591. BD*(   1) C  28 - C  31          0.02722     0.60197   
   592. BD*(   2) C  28 - C  31          0.38283     0.04496  595(v),602(v),338(g),613(r)
                                                    583(v),312(g),331(v),347(v)
                                                    571(r),339(g)
   593. BD*(   1) C  28 - C  32          0.02564     0.59205   
   594. BD*(   1) C  29 - C  30          0.01835     0.61053   
   595. BD*(   2) C  29 - C  30          0.33487     0.05290  602(v),592(v),320(g),331(g)
                                                    330(g),358(v)
   596. BD*(   1) C  29 - C  33          0.01848     0.60551   
   597. BD*(   1) C  29 - H  34          0.01490     0.49221   
   598. BD*(   1) C  30 - C  31          0.01990     0.61056   
   599. BD*(   1) C  30 - H  35          0.01486     0.49138   
   600. BD*(   1) C  31 - H  36          0.01700     0.49651   
   601. BD*(   1) C  32 - C  33          0.01962     0.61610   
   602. BD*(   2) C  32 - C  33          0.31592     0.05379  595(v),592(v),358(g),347(g)
                                                    571(r),349(g)
   603. BD*(   1) C  32 - H  37          0.01653     0.50889   
   604. BD*(   1) C  33 - H  38          0.01478     0.49081   
   605. BD*(   1) C  39 - C  42          0.03351     0.58532   
   606. BD*(   1) C  39 - C  43          0.02728     0.58472   
   607. BD*(   2) C  39 - C  43          0.35513     0.03398  610(v),613(v),406(g),583(v)
                                                    371(g),589(v),398(v)
   608. BD*(   1) C  40 - C  41          0.01843     0.59303   
   609. BD*(   1) C  40 - C  44          0.01858     0.59643   
   610. BD*(   2) C  40 - C  44          0.32307     0.04014  613(v),607(v),416(g),380(g)
   611. BD*(   1) C  40 - H  45          0.01475     0.48055   
   612. BD*(   1) C  41 - C  42          0.02131     0.60074   
   613. BD*(   2) C  41 - C  42          0.31111     0.04131  610(v),607(v),389(g),592(r)
                                                    398(g),399(g)
   614. BD*(   1) C  41 - H  46          0.01514     0.48065   
   615. BD*(   1) C  42 - H  47          0.01671     0.48499   
   616. BD*(   1) C  43 - C  44          0.02023     0.60134   
   617. BD*(   1) C  43 - H  48          0.01729     0.48580   
   618. BD*(   1) C  44 - H  49          0.01486     0.48135   
   619. BD*(   1) C  50 - C  51          0.02397     0.41396   
   620. BD*(   1) C  50 - C  52          0.03314     0.42678   
   621. BD*(   1) C  50 - H  53          0.02799     0.46698   
   622. BD*(   1) C  51 - C  54          0.01806     0.42774   
   623. BD*(   1) C  51 - H  55          0.01973     0.46417   
   624. BD*(   1) C  51 - H  56          0.01544     0.47498   
   625. BD*(   1) C  52 - C  57          0.01996     0.43104   
   626. BD*(   1) C  52 - H  58          0.01831     0.51478   
   627. BD*(   1) C  52 - H  59          0.01999     0.46883   
   628. BD*(   1) C  54 - C  60          0.01744     0.42893   
   629. BD*(   1) C  54 - H  61          0.01315     0.47786   
   630. BD*(   1) C  54 - H  62          0.01874     0.47563   
   631. BD*(   1) C  57 - C  60          0.01730     0.42969   
   632. BD*(   1) C  57 - H  63          0.01348     0.47906   
   633. BD*(   1) C  57 - H  64          0.01834     0.46280   
   634. BD*(   1) C  60 - H  65          0.01851     0.46232   
   635. BD*(   1) C  60 - H  66          0.01332     0.48027   
   636. BD*(   1) C  67 - C  68          0.03278     0.41669   
   637. BD*(   1) C  67 - C  69          0.02401     0.42036   
   638. BD*(   1) C  67 - H  70          0.02353     0.45336   
   639. BD*(   1) C  68 - C  71          0.02121     0.43243   
   640. BD*(   1) C  68 - H  72          0.01976     0.46357   
   641. BD*(   1) C  68 - H  73          0.01657     0.50881   
   642. BD*(   1) C  69 - C  74          0.01746     0.42899   
   643. BD*(   1) C  69 - H  75          0.01427     0.48785   
   644. BD*(   1) C  69 - H  76          0.01912     0.47297   
   645. BD*(   1) C  71 - C  77          0.01725     0.43066   
   646. BD*(   1) C  71 - H  78          0.01383     0.47952   
   647. BD*(   1) C  71 - H  79          0.01876     0.46142   
   648. BD*(   1) C  74 - C  77          0.01771     0.43061   
   649. BD*(   1) C  74 - H  80          0.01304     0.48090   
   650. BD*(   1) C  74 - H  81          0.01857     0.46339   
   651. BD*(   1) C  77 - H  82          0.01857     0.46300   
   652. BD*(   1) C  77 - H  83          0.01342     0.48094   
       -------------------------------
              Total Lewis  249.78380  ( 97.9466%)
        Valence non-Lewis    4.69004  (  1.8391%)
        Rydberg non-Lewis    0.54643  (  0.2143%)
       -------------------------------
            Total unit  3  255.02027  (100.0000%)
           Charge unit  3   -0.02027


 NATURAL LOCALIZED MOLECULAR ORBITAL (NLMO) ANALYSIS:

 Highest occupied NBOs are not at the beginning of the NBO list;
 The NLMO program is not currently set up to handle this.
 Leave Link  607 at Sat Aug 12 03:29:42 2023, MaxMem=  4026531840 cpu:              92.6 elap:               3.0
 (Enter /sw/arch/Centos8/EB_production/2021/software/Gaussian/g16.c01/l9999.exe)
 Unable to Open any file for archive entry.
 1\1\GINC-TCN153\SP\RPBE1PBE\def2SVPP\C36H44Fe1P2\ADARSH\12-Aug-2023\0\
 \#p pop=nbo NMR pbe1pbe/def2svpp empiricaldispersion=gd3bj integral=gr
 id=ultrafinegrid scf=(xqc,maxconventionalcycles=90) nosymm\\Cisa\\0,1\
 C,0,-4.06619,-1.26089,0.21264\C,0,-4.75927,-0.92534,1.40866\C,0,-5.110
 5,0.45373,1.33959\C,0,-4.63112,0.96968,0.10149\C,0,-3.98235,-0.0891,-0
 .59537\H,0,-3.66757,-2.24282,-0.0371\H,0,-4.97035,-1.60033,2.23841\H,0
 ,-5.63069,1.02211,2.11089\H,0,-4.72823,2.00015,-0.24141\H,0,-3.51407,-
 0.01399,-1.57724\Fe,0,-3.08438,0.24327,1.22463\C,0,-2.08854,1.91806,1.
 81141\C,0,-1.23265,1.1062,1.0069\C,0,-1.10269,-0.17567,1.65052\C,0,-1.
 89745,-0.12881,2.84628\C,0,-2.49103,1.158,2.94466\H,0,-2.40841,2.93328
 ,1.5788\H,0,-2.03769,-0.93784,3.56183\H,0,-3.17518,1.48587,3.72735\C,0
 ,-0.46248,1.53421,-0.2027\H,0,-0.49289,0.72455,-0.95081\P,0,0.2552,-1.
 34137,1.32838\C,0,-0.99543,2.80634,-0.84526\H,0,-0.51082,3.00569,-1.81
 238\H,0,-2.07697,2.69002,-1.03324\H,0,-0.85071,3.6872,-0.19895\P,0,1.3
 6417,1.57694,0.28084\C,0,1.67017,3.25466,0.92043\C,0,2.20162,5.73563,2
 .11109\C,0,2.97366,5.29421,1.03889\C,0,2.71158,4.05902,0.44391\C,0,0.9
 1191,3.69345,2.01849\C,0,1.17094,4.93074,2.6013\H,0,2.40716,6.70544,2.
 57294\H,0,3.78963,5.91459,0.65743\H,0,3.32845,3.72456,-0.39437\H,0,0.1
 2449,3.05522,2.43126\H,0,0.56937,5.26606,3.45106\C,0,2.27787,1.44351,-
 1.29203\C,0,3.66296,1.07474,-3.70077\C,0,2.84502,2.19249,-3.5275\C,0,2
 .15758,2.37976,-2.3305\C,0,3.11208,0.33107,-1.47184\C,0,3.80036,0.1464
 8,-2.66979\H,0,4.20154,0.93242,-4.64206\H,0,2.74524,2.92855,-4.33026\H
 ,0,1.54205,3.27366,-2.20266\H,0,3.21795,-0.39066,-0.65223\H,0,4.44869,
 -0.72512,-2.79676\C,0,0.2938,-1.83417,-0.46381\C,0,1.27996,-2.97609,-0
 .72782\C,0,-1.03523,-2.08132,-1.16719\H,0,0.74383,-0.93938,-0.93195\C,
 0,1.50339,-3.13927,-2.23049\H,0,0.87108,-3.91822,-0.32128\H,0,2.23947,
 -2.79129,-0.21057\C,0,-0.81147,-2.2376,-2.66971\H,0,-1.72416,-1.25092,
 -0.95429\H,0,-1.50794,-2.99578,-0.76857\C,0,0.18658,-3.35149,-2.97226\
 H,0,2.18963,-3.98399,-2.41565\H,0,2.00322,-2.23231,-2.62096\H,0,-1.773
 85,-2.43392,-3.17398\H,0,-0.43133,-1.28112,-3.07955\H,0,-0.2506,-4.321
 77,-2.66731\H,0,0.36799,-3.42013,-4.05866\C,0,-0.1829,-2.77628,2.41478
 \C,0,-1.51286,-3.45034,2.06038\C,0,0.91181,-3.82993,2.61182\H,0,-0.306
 28,-2.2703,3.39287\C,0,-1.92662,-4.43138,3.15451\H,0,-1.38985,-4.00282
 ,1.11088\H,0,-2.29838,-2.69593,1.89158\C,0,0.50372,-4.81413,3.70797\H,
 0,1.87081,-3.35784,2.87317\H,0,1.0754,-4.38392,1.67199\C,0,-0.83989,-5
 .47168,3.408\H,0,-2.87488,-4.92347,2.8763\H,0,-2.1279,-3.8701,4.08787\
 H,0,1.28859,-5.58059,3.8298\H,0,0.44224,-4.27398,4.67275\H,0,-0.7376,-
 6.11345,2.5118\H,0,-1.13197,-6.13934,4.23665\\Version=ES64L-G16RevC.01
 \HF=-3341.3002504\RMSD=3.738e-09\Dipole=-0.3051518,-0.0173829,-0.54919
 88\Quadrupole=-5.6885763,3.5877191,2.1008572,-3.241484,-11.0615871,-1.
 4273088\PG=C01 [X(C36H44Fe1P2)]\\@
 The archive entry for this job was punched.


 WE ARE REACHING THE STAGE WHERE THE PROBLEMS WE MUST SOLVE ARE 
 GOING TO BECOME INSOLUBLE WITHOUT COMPUTERS.
 I DO NOT FEAR COMPUTERS.  I FEAR THE LACK OF THEM.

                                   -- ISSAC ASIMOV
 Job cpu time:       0 days  2 hours 39 minutes 55.6 seconds.
 Elapsed time:       0 days  0 hours  6 minutes 40.0 seconds.
 File lengths (MBytes):  RWF=    480 Int=      0 D2E=      0 Chk=     40 Scr=     32
 Normal termination of Gaussian 16 at Sat Aug 12 03:29:42 2023.
