      -----------------------------------------------------------      
     |                   =====================                   |     
     |                           x T B                           |     
     |                   =====================                   |     
     |                         S. Grimme                         |     
     |          Mulliken Center for Theoretical Chemistry        |     
     |                    University of Bonn                     |     
      -----------------------------------------------------------      

   * xtb version 6.5.1 (579679a) compiled by 'ehlert@majestix' on 2022-07-11

   xtb is free software: you can redistribute it and/or modify it under
   the terms of the GNU Lesser General Public License as published by
   the Free Software Foundation, either version 3 of the License, or
   (at your option) any later version.
   
   xtb is distributed in the hope that it will be useful,
   but WITHOUT ANY WARRANTY; without even the implied warranty of
   MERCHANTABILITY or FITNESS FOR A PARTICULAR PURPOSE.  See the
   GNU Lesser General Public License for more details.
   
   Cite this work as:
   * C. Bannwarth, E. Caldeweyher, S. Ehlert, A. Hansen, P. Pracht,
     J. Seibert, S. Spicher, S. Grimme, WIREs Comput. Mol. Sci., 2020, 11,
     e01493. DOI: 10.1002/wcms.1493
   
   for GFN2-xTB:
   * C. Bannwarth, S. Ehlert and S. Grimme., J. Chem. Theory Comput., 2019,
     15, 1652-1671. DOI: 10.1021/acs.jctc.8b01176
   for GFN1-xTB:
   * S. Grimme, C. Bannwarth, P. Shushkov, J. Chem. Theory Comput., 2017,
     13, 1989-2009. DOI: 10.1021/acs.jctc.7b00118
   for GFN0-xTB:
   * P. Pracht, E. Caldeweyher, S. Ehlert, S. Grimme, ChemRxiv, 2019, preprint.
     DOI: 10.26434/chemrxiv.8326202.v1
   for GFN-FF:
   * S. Spicher and S. Grimme, Angew. Chem. Int. Ed., 2020, 59, 15665-15673.
     DOI: 10.1002/anie.202004239
   
   for ALPB and GBSA implicit solvation:
   * S. Ehlert, M. Stahn, S. Spicher, S. Grimme, J. Chem. Theory Comput.,
     2021, 17, 4250-4261. DOI: 10.1021/acs.jctc.1c00471
   
   for DFT-D4:
   * E. Caldeweyher, C. Bannwarth and S. Grimme, J. Chem. Phys., 2017,
     147, 034112. DOI: 10.1063/1.4993215
   * E. Caldeweyher, S. Ehlert, A. Hansen, H. Neugebauer, S. Spicher,
     C. Bannwarth and S. Grimme, J. Chem. Phys., 2019, 150, 154122.
     DOI: 10.1063/1.5090222
   * E. Caldeweyher, J.-M. Mewes, S. Ehlert and S. Grimme, Phys. Chem. Chem. Phys.
     2020, 22, 8499-8512. DOI: 10.1039/D0CP00502A
   
   for sTDA-xTB:
   * S. Grimme and C. Bannwarth, J. Chem. Phys., 2016, 145, 054103.
     DOI: 10.1063/1.4959605
   
   in the mass-spec context:
   * V. Asgeirsson, C. Bauer and S. Grimme, Chem. Sci., 2017, 8, 4879.
     DOI: 10.1039/c7sc00601b
   * J. Koopman and S. Grimme, ACS Omega 2019, 4, 12, 15120-15133.
     DOI: 10.1021/acsomega.9b02011
   
   for metadynamics refer to:
   * S. Grimme, J. Chem. Theory Comput., 2019, 155, 2847-2862
     DOI: 10.1021/acs.jctc.9b00143
   
   for SPH calculations refer to:
   * S. Spicher and S. Grimme, J. Chem. Theory Comput., 2021, 17, 1701-1714
     DOI: 10.1021/acs.jctc.0c01306
   
   with help from (in alphabetical order)
   P. Atkinson, C. Bannwarth, F. Bohle, G. Brandenburg, E. Caldeweyher
   M. Checinski, S. Dohm, S. Ehlert, S. Ehrlich, I. Gerasimov, C. Hölzer
   A. Katbashev, J. Koopman, C. Lavigne, S. Lehtola, F. März, M. Müller,
   F. Musil, H. Neugebauer, J. Pisarek, C. Plett, P. Pracht, F. Pultar,
   J. Seibert, P. Shushkov, S. Spicher, M. Stahn, M. Steiner, T. Strunk,
   J. Stückrath, T. Rose, and J. Unsleber
   
 * started run on 2022/10/30 at 17:45:10.022     

           -------------------------------------------------
          |                Calculation Setup                |
           -------------------------------------------------

          program call               : xtb [Ir+3]_1202033-19-9_SP0.xyz --gfn2 --chrg 0 --uhf 1 --alpb ch2cl2 --opt 1
          hostname                   : cmp002
          coordinate file            : [Ir+3]_1202033-19-9_SP0.xyz
          omp threads                :                     8

   ID    Z sym.   atoms
    1    6 C      1, 3-8, 10-13, 16-21, 23-27, 29, 30
    2    8 O      2, 22, 28, 31
    3   15 P      9, 15
    4   77 Ir     14
    5    1 H      32-63

molecular fragmentation (1/2 indicates fragments):
111111111111111111111121111111111111111111111111111111122211111
# atoms in fragment 1/2:    59     4
 fragment masses (1/2) :      623.64       15.03
CMA distance (Bohr)    :   8.412
constraining FC (au)   :  0.0500

           -------------------------------------------------
          |                 G F N 2 - x T B                 |
           -------------------------------------------------

        Reference                      10.1021/acs.jctc.8b01176
      * Hamiltonian:
        H0-scaling (s, p, d)           1.850000    2.230000    2.230000
        zeta-weighting                 0.500000
      * Dispersion:
        s8                             2.700000
        a1                             0.520000
        a2                             5.000000
        s9                             5.000000
      * Repulsion:
        kExp                           1.500000    1.000000
        rExp                           1.000000
      * Coulomb:
        alpha                          2.000000
        third order                    shell-resolved
        anisotropic                    true
        a3                             3.000000
        a5                             4.000000
        cn-shift                       1.200000
        cn-exp                         4.000000
        max-rad                        5.000000

      * Solvation model:               ALPB
        Solvent                        ch2cl2
        Parameter file                 internal GFN2-xTB/ALPB
        Dielectric constant                8.9300E+00
        Reference state                gsolv [1 M gas/solution]
        Free energy shift                  4.1487E-03 Eh       2.6033E+00 kcal/mol
        Temperature                        2.9815E+02 K
        Density                            1.3300E+00 kg/L
        Solvent mass                       8.4930E+01 g/mol
        Interaction kernel             P16
        Born radius scaling (c1)           1.5691E+00
        Born radii integrator          GBOBC
        Born offset                        0.0000E+00 a0       0.0000E+00 AA
        H-bond correction              false
        Ion screening                  false
        Surface tension                    1.0000E-05 Eh       1.5569E+01 dyn/cm
        Grid points                               230 per atom

          ...................................................
          :                      SETUP                      :
          :.................................................:
          :  # basis functions                 174          :
          :  # atomic orbitals                 171          :
          :  # shells                           97          :
          :  # electrons                       171          :
          :  max. iterations                   250          :
          :  Hamiltonian                  GFN2-xTB          :
          :  restarted?                      false          :
          :  GBSA solvation                   true          :
          :  PC potential                    false          :
          :  electronic temp.          300.0000000     K    :
          :  accuracy                    1.0000000          :
          :  -> integral cutoff          0.2500000E+02      :
          :  -> integral neglect         0.1000000E-07      :
          :  -> SCF convergence          0.1000000E-05 Eh   :
          :  -> wf. convergence          0.1000000E-03 e    :
          :  Broyden damping             0.4000000          :
          ...................................................

 iter      E             dE          RMSdq      gap      omega  full diag
   1    -92.6887598 -0.926888E+02  0.636E+00    0.83       0.0  T
   2    -79.8272989  0.128615E+02  0.110E+01    0.00       1.0  T
   3    -92.2441461 -0.124168E+02  0.498E+00    2.11       1.0  T
   4    -92.8948309 -0.650685E+00  0.371E+00    1.79       1.0  T
   5    -93.1351521 -0.240321E+00  0.288E+00    1.48       1.0  T
   6    -93.4092513 -0.274099E+00  0.220E+00    1.15       1.0  T
   7    -93.6345915 -0.225340E+00  0.143E+00    0.62       1.0  T
   8    -93.6962417 -0.616502E-01  0.105E+00    0.46       1.0  T
   9    -93.7472778 -0.510361E-01  0.598E-01    0.35       1.0  T
  10    -93.7707683 -0.234905E-01  0.258E-01    0.26       1.0  T
  11    -93.7720388 -0.127048E-02  0.202E-01    0.25       1.0  T
  12    -93.7662494  0.578942E-02  0.384E-01    0.28       1.0  T
  13    -93.7695035 -0.325411E-02  0.261E-01    0.27       1.0  T
  14    -93.7694818  0.217188E-04  0.218E-01    0.26       1.0  T
  15    -93.7718769 -0.239518E-02  0.102E-01    0.26       1.0  T
  16    -93.7725026 -0.625682E-03  0.271E-02    0.25       1.0  T
  17    -93.7724603  0.423226E-04  0.365E-02    0.25       1.0  T
  18    -93.7725328 -0.725180E-04  0.617E-03    0.25       2.0  T
  19    -93.7725331 -0.314150E-06  0.595E-03    0.25       2.1  T
  20    -93.7725329  0.268141E-06  0.486E-03    0.25       2.6  T
  21    -93.7725335 -0.652238E-06  0.243E-03    0.25       5.2  T
  22    -93.7725339 -0.381055E-06  0.218E-03    0.25       5.8  T
  23    -93.7725338  0.710511E-07  0.200E-03    0.25       6.3  T
  24    -93.7725340 -0.140084E-06  0.947E-04    0.25      13.3  T
  25    -93.7725340 -0.491463E-07  0.385E-04    0.25      32.7  T

   *** convergence criteria satisfied after 25 iterations ***

         #    Occupation            Energy/Eh            Energy/eV
      -------------------------------------------------------------
         1        2.0000           -0.7247830             -19.7223
       ...           ...                  ...                  ...
        80        2.0000           -0.3595991              -9.7852
        81        2.0000           -0.3589910              -9.7686
        82        2.0000           -0.3122885              -8.4978
        83        2.0000           -0.3033982              -8.2559
        84        2.0000           -0.2942435              -8.0068
        85        1.9999           -0.2847749              -7.7491
        86        0.9922           -0.2679087              -7.2902 (HOMO)
        87        0.0077           -0.2586951              -7.0395 (LUMO)
        88        0.0002           -0.2554020              -6.9498
        89        0.0000           -0.2493100              -6.7841
        90                         -0.2352562              -6.4016
        91                         -0.2322810              -6.3207
       ...                                ...                  ...
       171                          3.5039776              95.3481
      -------------------------------------------------------------
                  HL-Gap            0.0092136 Eh            0.2507 eV
             Fermi-level           -0.2698293 Eh           -7.3424 eV

 SCC (total)                   0 d,  0 h,  0 min,  0.185 sec
 SCC setup                      ...        0 min,  0.003 sec (  1.529%)
 Dispersion                     ...        0 min,  0.001 sec (  0.602%)
 classical contributions        ...        0 min,  0.000 sec (  0.053%)
 integral evaluation            ...        0 min,  0.010 sec (  5.261%)
 iterations                     ...        0 min,  0.157 sec ( 84.976%)
 molecular gradient             ...        0 min,  0.013 sec (  7.098%)
 printout                       ...        0 min,  0.001 sec (  0.454%)

         :::::::::::::::::::::::::::::::::::::::::::::::::::::
         ::                     SUMMARY                     ::
         :::::::::::::::::::::::::::::::::::::::::::::::::::::
         :: total energy             -92.140146214511 Eh    ::
         :: total w/o Gsasa/hb       -92.105926512202 Eh    ::
         :: gradient norm              1.332384815384 Eh/a0 ::
         :: HOMO-LUMO gap              0.250713529732 eV    ::
         ::.................................................::
         :: SCC energy               -93.772534006654 Eh    ::
         :: -> isotropic ES            0.119936079837 Eh    ::
         :: -> anisotropic ES          0.012584013323 Eh    ::
         :: -> anisotropic XC          0.033818490828 Eh    ::
         :: -> dispersion             -0.096900987931 Eh    ::
         :: -> Gsolv                  -0.052158167612 Eh    ::
         ::    -> Gelec               -0.017938465303 Eh    ::
         ::    -> Gsasa               -0.038368399670 Eh    ::
         ::    -> Ghb                  0.000000000000 Eh    ::
         ::    -> Gshift               0.004148697361 Eh    ::
         :: repulsion energy           1.628829467783 Eh    ::
         :: add. restraining           0.000000000000 Eh    ::
         :: total charge               0.000000000000 e     ::
         :::::::::::::::::::::::::::::::::::::::::::::::::::::

      ----------------------------------------------------------- 
     |                   =====================                   |
     |                        A N C O P T                        |
     |                   =====================                   |
     |               Approximate Normal Coordinate               |
     |                Rational Function Optimizer                |
      ----------------------------------------------------------- 

          ...................................................
          :                      SETUP                      :
          :.................................................:
          :   optimization level             tight          :
          :   max. optcycles                   315          :
          :   ANC micro-cycles                  20          :
          :   degrees of freedom               183          :
          :.................................................:
          :   RF solver                   davidson          :
          :   write xtbopt.log                true          :
          :   linear?                        false          :
          :   energy convergence         0.1000000E-05 Eh   :
          :   grad. convergence          0.8000000E-03 Eh/α :
          :   maximium RF displ.         1.0000000          :
          :   Hlow (freq-cutoff)         0.1000000E-01      :
          :   Hmax (freq-cutoff)         5.0000000          :
          :   S6 in model hess.         20.0000000          :
          ...................................................

generating ANC from model Hessian ...
Using Lindh-Hessian (1995)
 Shifting diagonal of input Hessian by   9.855727303977114E-003
 Lowest  eigenvalues of input Hessian
    0.000000    0.000000    0.000000    0.000000    0.000000    0.000000
    0.010000    0.010070    0.010494    0.010778    0.010795    0.010839
    0.011081    0.011639    0.011643    0.012310    0.012578    0.013908
 Highest eigenvalues
    2.060556    2.061856    2.989291    2.995427    3.657455    3.660561
 

........................................................................
.............................. CYCLE    1 ..............................
........................................................................
   1    -93.7725340 -0.937725E+02  0.243E-04    0.25       0.0  T
   2    -93.7725340  0.515136E-07  0.809E-04    0.25      15.6  T
   3    -93.7725340 -0.541225E-07  0.956E-05    0.25     131.8  T
     SCC iter.                  ...        0 min,  0.015 sec
     gradient                   ...        0 min,  0.011 sec
 * total energy  :   -92.1401462 Eh     change       -0.4703068E-08 Eh
   gradient norm :     1.3323851 Eh/α   predicted     0.0000000E+00 (-100.00%)
   displ. norm   :     0.4963874 α      lambda       -0.5741661E+00
   maximum displ.:     0.2195669 α      in ANC's #180, #183, #133, ...

........................................................................
.............................. CYCLE    2 ..............................
........................................................................
   1    -93.8528082 -0.938528E+02  0.571E-01    0.22       0.0  T
   2    -93.8466555  0.615272E-02  0.460E-01    0.24       1.0  T
   3    -93.8206094  0.260461E-01  0.670E-01    0.17       1.0  T
   4    -93.8542279 -0.336185E-01  0.231E-01    0.23       1.0  T
   5    -93.8550000 -0.772083E-03  0.123E-01    0.20       1.0  T
   6    -93.8474885  0.751143E-02  0.242E-01    0.23       1.0  T
   7    -93.8535422 -0.605366E-02  0.142E-01    0.23       1.0  T
   8    -93.8557590 -0.221678E-02  0.405E-02    0.21       1.0  T
   9    -93.8557472  0.118128E-04  0.297E-02    0.21       1.0  T
  10    -93.8557672 -0.200139E-04  0.189E-02    0.21       1.0  T
  11    -93.8557745 -0.735314E-05  0.108E-02    0.21       1.2  T
  12    -93.8557781 -0.356131E-05  0.273E-03    0.21       4.6  T
  13    -93.8557781 -0.138476E-07  0.230E-03    0.21       5.5  T
  14    -93.8557779  0.182510E-06  0.230E-03    0.21       5.5  T
  15    -93.8557782 -0.324595E-06  0.887E-04    0.21      14.2  T
  16    -93.8557783 -0.314229E-07  0.314E-04    0.21      40.1  T
     SCC iter.                  ...        0 min,  0.079 sec
     gradient                   ...        0 min,  0.012 sec
 * total energy  :   -92.5167305 Eh     change       -0.3765843E+00 Eh
   gradient norm :     0.5001162 Eh/α   predicted    -0.3578670E+00 (  -4.97%)
   displ. norm   :     0.5133709 α      lambda       -0.1746757E+00
   maximum displ.:     0.1805148 α      in ANC's #63, #180, #133, ...

........................................................................
.............................. CYCLE    3 ..............................
........................................................................
   1    -93.9101002 -0.939101E+02  0.532E-01    0.30       0.0  T
   2    -93.8932938  0.168065E-01  0.579E-01    0.23       1.0  T
   3    -93.8950031 -0.170936E-02  0.538E-01    0.35       1.0  T
   4    -93.9149770 -0.199738E-01  0.214E-01    0.28       1.0  T
   5    -93.9157078 -0.730855E-03  0.138E-01    0.27       1.0  T
   6    -93.9163262 -0.618340E-03  0.759E-02    0.28       1.0  T
   7    -93.9163881 -0.619094E-04  0.430E-02    0.28       1.0  T
   8    -93.9160905  0.297537E-03  0.650E-02    0.28       1.0  T
   9    -93.9165501 -0.459611E-03  0.110E-02    0.28       1.1  T
  10    -93.9165523 -0.218863E-05  0.662E-03    0.28       1.9  T
  11    -93.9165516  0.762037E-06  0.486E-03    0.28       2.6  T
  12    -93.9165529 -0.134241E-05  0.252E-03    0.28       5.0  T
  13    -93.9165532 -0.319701E-06  0.116E-03    0.28      10.9  T
  14    -93.9165533 -0.344491E-07  0.585E-04    0.28      21.5  T
  15    -93.9165533 -0.555731E-08  0.294E-04    0.28      42.8  T
     SCC iter.                  ...        0 min,  0.074 sec
     gradient                   ...        0 min,  0.012 sec
 * total energy  :   -92.6524899 Eh     change       -0.1357594E+00 Eh
   gradient norm :     0.2663927 Eh/α   predicted    -0.1103558E+00 ( -18.71%)
   displ. norm   :     0.6448873 α      lambda       -0.1237444E+00
   maximum displ.:     0.2568118 α      in ANC's #63, #61, #180, ...

........................................................................
.............................. CYCLE    4 ..............................
........................................................................
   1    -93.9605085 -0.939605E+02  0.565E-01    0.25       0.0  T
   2    -93.9412383  0.192702E-01  0.792E-01    0.24       1.0  T
   3    -93.9496167 -0.837843E-02  0.592E-01    0.23       1.0  T
   4    -93.9648332 -0.152164E-01  0.258E-01    0.25       1.0  T
   5    -93.9652529 -0.419735E-03  0.239E-01    0.25       1.0  T
   6    -93.9675237 -0.227078E-02  0.803E-02    0.26       1.0  T
   7    -93.9675431 -0.193822E-04  0.643E-02    0.26       1.0  T
   8    -93.9678598 -0.316730E-03  0.278E-02    0.26       1.0  T
   9    -93.9679068 -0.470103E-04  0.916E-03    0.26       1.4  T
  10    -93.9679078 -0.981692E-06  0.961E-03    0.26       1.3  T
  11    -93.9679089 -0.106536E-05  0.463E-03    0.26       2.7  T
  12    -93.9679099 -0.105123E-05  0.154E-03    0.26       8.2  T
  13    -93.9679100 -0.653775E-07  0.104E-03    0.26      12.2  T
  14    -93.9679100  0.104984E-08  0.830E-04    0.26      15.2  T
  15    -93.9679100 -0.122278E-07  0.442E-04    0.26      28.5  T
     SCC iter.                  ...        0 min,  0.073 sec
     gradient                   ...        0 min,  0.011 sec
 * total energy  :   -92.7476761 Eh     change       -0.9518616E-01 Eh
   gradient norm :     0.1221611 Eh/α   predicted    -0.8760468E-01 (  -7.96%)
   displ. norm   :     0.7691473 α      lambda       -0.8303443E-01
   maximum displ.:     0.3262123 α      in ANC's #63, #47, #40, ...

........................................................................
.............................. CYCLE    5 ..............................
........................................................................
   1    -93.9411376 -0.939411E+02  0.126E+00    0.28       0.0  T
   2    -91.3913254  0.254981E+01  0.599E+00    0.25       1.0  T
   3    -93.8763245 -0.248500E+01  0.161E+00    0.21       1.0  T
   4    -93.9710063 -0.946818E-01  0.633E-01    0.17       1.0  T
   5    -93.9865597 -0.155534E-01  0.220E-01    0.13       1.0  T
   6    -93.9861563  0.403452E-03  0.218E-01    0.12       1.0  T
   7    -93.9864427 -0.286450E-03  0.203E-01    0.13       1.0  T
   8    -93.9873404 -0.897690E-03  0.189E-01    0.12       1.0  T
   9    -93.9875385 -0.198092E-03  0.175E-01    0.12       1.0  T
  10    -93.9878424 -0.303871E-03  0.138E-01    0.12       1.0  T
  11    -93.9879530 -0.110681E-03  0.121E-01    0.12       1.0  T
  12    -93.9880342 -0.811861E-04  0.105E-01    0.12       1.0  T
  13    -93.9880508 -0.165916E-04  0.912E-02    0.12       1.0  T
  14    -93.9881383 -0.874866E-04  0.491E-02    0.12       1.0  T
  15    -93.9881580 -0.197311E-04  0.189E-02    0.12       1.0  T
  16    -93.9881579  0.174923E-06  0.171E-02    0.12       1.0  T
  17    -93.9881588 -0.921711E-06  0.925E-03    0.12       1.4  T
  18    -93.9881590 -0.250643E-06  0.268E-03    0.12       4.7  T
  19    -93.9881591 -0.766615E-07  0.419E-04    0.12      30.1  T
  20    -93.9881591  0.557222E-09  0.441E-04    0.12      28.6  T
     SCC iter.                  ...        0 min,  0.099 sec
     gradient                   ...        0 min,  0.012 sec
 * total energy  :   -92.8107026 Eh     change       -0.6302657E-01 Eh
   gradient norm :     0.0814439 Eh/α   predicted    -0.6607830E-01 (   4.84%)
   displ. norm   :     0.7297428 α      lambda       -0.4358854E-01
   maximum displ.:     0.3646504 α      in ANC's #40, #63, #47, ...

........................................................................
.............................. CYCLE    6 ..............................
........................................................................
   1    -93.9954388 -0.939954E+02  0.732E-01    0.32       0.0  T
   2    -93.0791006  0.916338E+00  0.323E+00    0.29       1.0  T
   3    -94.0010019 -0.921901E+00  0.511E-01    0.21       1.0  T
   4    -94.0059147 -0.491280E-02  0.361E-01    0.18       1.0  T
   5    -94.0090044 -0.308967E-02  0.276E-01    0.15       1.0  T
   6    -94.0137685 -0.476405E-02  0.132E-01    0.10       1.0  T
   7    -94.0136894  0.790843E-04  0.832E-02    0.11       1.0  T
   8    -94.0140697 -0.380321E-03  0.431E-02    0.10       1.0  T
   9    -94.0141457 -0.759669E-04  0.144E-02    0.09       1.0  T
  10    -94.0141428  0.287597E-05  0.145E-02    0.09       1.0  T
  11    -94.0141471 -0.436210E-05  0.680E-03    0.09       1.9  T
  12    -94.0141486 -0.143799E-05  0.365E-03    0.09       3.5  T
  13    -94.0141493 -0.722389E-06  0.202E-03    0.09       6.2  T
  14    -94.0141496 -0.270521E-06  0.843E-04    0.09      14.9  T
  15    -94.0141496 -0.455454E-08  0.462E-04    0.09      27.3  T
     SCC iter.                  ...        0 min,  0.076 sec
     gradient                   ...        0 min,  0.012 sec
 * total energy  :   -92.8434533 Eh     change       -0.3275067E-01 Eh
   gradient norm :     0.0776024 Eh/α   predicted    -0.3340046E-01 (   1.98%)
   displ. norm   :     0.6806762 α      lambda       -0.3143346E-01
   maximum displ.:     0.3334390 α      in ANC's #40, #9, #63, ...

........................................................................
.............................. CYCLE    7 ..............................
........................................................................
   1    -94.0292033 -0.940292E+02  0.428E-01    0.31       0.0  T
   2    -93.7867557  0.242448E+00  0.182E+00    0.17       1.0  T
   3    -94.0235407 -0.236785E+00  0.405E-01    0.37       1.0  T
   4    -94.0310731 -0.753243E-02  0.250E-01    0.26       1.0  T
   5    -94.0307662  0.306916E-03  0.201E-01    0.25       1.0  T
   6    -94.0324683 -0.170213E-02  0.129E-01    0.20       1.0  T
   7    -94.0327881 -0.319811E-03  0.908E-02    0.19       1.0  T
   8    -94.0331336 -0.345497E-03  0.517E-02    0.17       1.0  T
   9    -94.0332857 -0.152095E-03  0.106E-02    0.15       1.2  T
  10    -94.0332881 -0.243371E-05  0.398E-03    0.15       3.2  T
  11    -94.0332882 -0.403647E-07  0.316E-03    0.15       4.0  T
  12    -94.0332884 -0.243015E-06  0.163E-03    0.15       7.7  T
  13    -94.0332885 -0.840859E-07  0.926E-04    0.15      13.6  T
  14    -94.0332885  0.207398E-07  0.934E-04    0.15      13.5  T
     SCC iter.                  ...        0 min,  0.067 sec
     gradient                   ...        0 min,  0.014 sec
 * total energy  :   -92.8661690 Eh     change       -0.2271565E-01 Eh
   gradient norm :     0.0555479 Eh/α   predicted    -0.2299862E-01 (   1.25%)
   displ. norm   :     0.6949127 α      lambda       -0.2128034E-01
   maximum displ.:     0.3966469 α      in ANC's #9, #40, #63, ...

........................................................................
.............................. CYCLE    8 ..............................
........................................................................
   1    -94.0594528 -0.940595E+02  0.296E-01    0.32       0.0  T
   2    -94.0586875  0.765295E-03  0.237E-01    0.22       1.0  T
   3    -94.0578994  0.788108E-03  0.219E-01    0.39       1.0  T
   4    -94.0592184 -0.131901E-02  0.129E-01    0.23       1.0  T
   5    -94.0602494 -0.103099E-02  0.238E-02    0.29       1.0  T
   6    -94.0602747 -0.252765E-04  0.129E-02    0.28       1.0  T
   7    -94.0602785 -0.380286E-05  0.670E-03    0.28       1.9  T
   8    -94.0602800 -0.153448E-05  0.333E-03    0.28       3.8  T
   9    -94.0602801 -0.889761E-07  0.158E-03    0.28       8.0  T
  10    -94.0602801 -0.239082E-08  0.820E-04    0.28      15.4  T
  11    -94.0602801 -0.971728E-08  0.636E-04    0.28      19.8  T
     SCC iter.                  ...        0 min,  0.058 sec
     gradient                   ...        0 min,  0.012 sec
 * total energy  :   -92.8819539 Eh     change       -0.1578496E-01 Eh
   gradient norm :     0.0421996 Eh/α   predicted    -0.1577835E-01 (  -0.04%)
   displ. norm   :     0.6700566 α      lambda       -0.1282494E-01
   maximum displ.:     0.4479898 α      in ANC's #9, #7, #3, ...

........................................................................
.............................. CYCLE    9 ..............................
........................................................................
   1    -94.0784479 -0.940784E+02  0.225E-01    0.32       0.0  T
   2    -94.0783236  0.124343E-03  0.139E-01    0.38       1.0  T
   3    -94.0774658  0.857737E-03  0.140E-01    0.28       1.0  T
   4    -94.0781726 -0.706774E-03  0.103E-01    0.39       1.0  T
   5    -94.0786317 -0.459041E-03  0.104E-02    0.34       1.2  T
   6    -94.0786290  0.266549E-05  0.932E-03    0.34       1.4  T
   7    -94.0786318 -0.276746E-05  0.449E-03    0.34       2.8  T
   8    -94.0786321 -0.365419E-06  0.237E-03    0.34       5.3  T
   9    -94.0786322 -0.105653E-06  0.945E-04    0.34      13.3  T
  10    -94.0786322  0.469524E-08  0.708E-04    0.34      17.8  T
     SCC iter.                  ...        0 min,  0.047 sec
     gradient                   ...        0 min,  0.011 sec
 * total energy  :   -92.8918278 Eh     change       -0.9873899E-02 Eh
   gradient norm :     0.0257783 Eh/α   predicted    -0.9291531E-02 (  -5.90%)
   displ. norm   :     0.7108560 α      lambda       -0.8109218E-02
   maximum displ.:     0.4994597 α      in ANC's #9, #7, #1, ...

........................................................................
.............................. CYCLE   10 ..............................
........................................................................
   1    -94.0841583 -0.940842E+02  0.169E-01    0.37       0.0  T
   2    -94.0841093  0.489728E-04  0.111E-01    0.42       1.0  T
   3    -94.0837110  0.398298E-03  0.107E-01    0.34       1.0  T
   4    -94.0840576 -0.346569E-03  0.773E-02    0.42       1.0  T
   5    -94.0843101 -0.252482E-03  0.889E-03    0.39       1.4  T
   6    -94.0843107 -0.567769E-06  0.643E-03    0.39       2.0  T
   7    -94.0843108 -0.113745E-06  0.490E-03    0.39       2.6  T
   8    -94.0843113 -0.518509E-06  0.176E-03    0.39       7.2  T
   9    -94.0843113 -0.182519E-07  0.853E-04    0.39      14.8  T
  10    -94.0843113 -0.759930E-08  0.528E-04    0.39      23.9  T
     SCC iter.                  ...        0 min,  0.051 sec
     gradient                   ...        0 min,  0.011 sec
 * total energy  :   -92.8984024 Eh     change       -0.6574624E-02 Eh
   gradient norm :     0.0220881 Eh/α   predicted    -0.6103472E-02 (  -7.17%)
   displ. norm   :     0.7248585 α      lambda       -0.5968432E-02
   maximum displ.:     0.4986124 α      in ANC's #9, #1, #7, ...

........................................................................
.............................. CYCLE   11 ..............................
........................................................................
   1    -94.0872313 -0.940872E+02  0.148E-01    0.43       0.0  T
   2    -94.0872648 -0.334650E-04  0.899E-02    0.44       1.0  T
   3    -94.0872480  0.168216E-04  0.554E-02    0.45       1.0  T
   4    -94.0869444  0.303609E-03  0.700E-02    0.40       1.0  T
   5    -94.0872759 -0.331513E-03  0.111E-02    0.44       1.1  T
   6    -94.0872824 -0.655044E-05  0.386E-03    0.44       3.3  T
   7    -94.0872823  0.126162E-06  0.285E-03    0.43       4.4  T
   8    -94.0872825 -0.219431E-06  0.122E-03    0.43      10.4  T
   9    -94.0872826 -0.270562E-07  0.648E-04    0.43      19.5  T
  10    -94.0872826 -0.135241E-07  0.279E-04    0.43      45.1  T
     SCC iter.                  ...        0 min,  0.045 sec
     gradient                   ...        0 min,  0.011 sec
 * total energy  :   -92.9033701 Eh     change       -0.4967677E-02 Eh
   gradient norm :     0.0216077 Eh/α   predicted    -0.4552186E-02 (  -8.36%)
   displ. norm   :     0.7209157 α      lambda       -0.4758224E-02
   maximum displ.:     0.4732118 α      in ANC's #9, #1, #7, ...

........................................................................
.............................. CYCLE   12 ..............................
........................................................................
   1    -94.0894937 -0.940895E+02  0.150E-01    0.48       0.0  T
   2    -94.0895140 -0.202960E-04  0.903E-02    0.47       1.0  T
   3    -94.0894794  0.345771E-04  0.588E-02    0.49       1.0  T
   4    -94.0892201  0.259278E-03  0.665E-02    0.44       1.0  T
   5    -94.0895242 -0.304129E-03  0.115E-02    0.48       1.1  T
   6    -94.0895310 -0.675987E-05  0.351E-03    0.47       3.6  T
   7    -94.0895309  0.154965E-06  0.307E-03    0.47       4.1  T
   8    -94.0895310 -0.155248E-06  0.162E-03    0.47       7.8  T
   9    -94.0895311 -0.774153E-07  0.754E-04    0.47      16.7  T
  10    -94.0895311 -0.169824E-07  0.295E-04    0.47      42.7  T
     SCC iter.                  ...        0 min,  0.043 sec
     gradient                   ...        0 min,  0.011 sec
 * total energy  :   -92.9072366 Eh     change       -0.3866439E-02 Eh
   gradient norm :     0.0189798 Eh/α   predicted    -0.3615592E-02 (  -6.49%)
   displ. norm   :     0.6964483 α      lambda       -0.3697315E-02
   maximum displ.:     0.4647332 α      in ANC's #9, #1, #7, ...

........................................................................
.............................. CYCLE   13 ..............................
........................................................................
   1    -94.0893787 -0.940894E+02  0.159E-01    0.54       0.0  T
   2    -94.0893581  0.205571E-04  0.107E-01    0.52       1.0  T
   3    -94.0891654  0.192659E-03  0.876E-02    0.57       1.0  T
   4    -94.0890818  0.836047E-04  0.765E-02    0.49       1.0  T
   5    -94.0894556 -0.373796E-03  0.145E-02    0.54       1.0  T
   6    -94.0894665 -0.108456E-04  0.526E-03    0.53       2.4  T
   7    -94.0894667 -0.238164E-06  0.280E-03    0.53       4.5  T
   8    -94.0894668 -0.789901E-07  0.137E-03    0.53       9.2  T
   9    -94.0894669 -0.556399E-07  0.543E-04    0.53      23.2  T
  10    -94.0894669  0.521669E-08  0.468E-04    0.53      26.9  T
     SCC iter.                  ...        0 min,  0.043 sec
     gradient                   ...        0 min,  0.011 sec
 * total energy  :   -92.9099934 Eh     change       -0.2756831E-02 Eh
   gradient norm :     0.0165189 Eh/α   predicted    -0.2745335E-02 (  -0.42%)
   displ. norm   :     0.6447241 α      lambda       -0.2708854E-02
   maximum displ.:     0.4007632 α      in ANC's #9, #1, #10, ...

........................................................................
.............................. CYCLE   14 ..............................
........................................................................
   1    -94.0915487 -0.940915E+02  0.149E-01    0.59       0.0  T
   2    -94.0916367 -0.879645E-04  0.922E-02    0.58       1.0  T
   3    -94.0916517 -0.149620E-04  0.557E-02    0.59       1.0  T
   4    -94.0915011  0.150605E-03  0.532E-02    0.55       1.0  T
   5    -94.0916791 -0.178073E-03  0.121E-02    0.59       1.0  T
   6    -94.0916871 -0.794314E-05  0.380E-03    0.58       3.3  T
   7    -94.0916872 -0.117093E-06  0.253E-03    0.58       5.0  T
   8    -94.0916873 -0.626053E-07  0.137E-03    0.58       9.2  T
   9    -94.0916873 -0.102272E-07  0.724E-04    0.58      17.4  T
  10    -94.0916873 -0.391111E-08  0.473E-04    0.58      26.6  T
     SCC iter.                  ...        0 min,  0.043 sec
     gradient                   ...        0 min,  0.011 sec
 * total energy  :   -92.9116886 Eh     change       -0.1695224E-02 Eh
   gradient norm :     0.0166579 Eh/α   predicted    -0.1917424E-02 (  13.11%)
   displ. norm   :     0.5304880 α      lambda       -0.1754964E-02
   maximum displ.:     0.3047597 α      in ANC's #9, #1, #10, ...

........................................................................
.............................. CYCLE   15 ..............................
........................................................................
   1    -94.0936724 -0.940937E+02  0.116E-01    0.62       0.0  T
   2    -94.0937291 -0.566990E-04  0.679E-02    0.63       1.0  T
   3    -94.0937179  0.111984E-04  0.462E-02    0.61       1.0  T
   4    -94.0935608  0.157117E-03  0.583E-02    0.65       1.0  T
   5    -94.0937705 -0.209703E-03  0.599E-03    0.62       2.1  T
   6    -94.0937710 -0.514247E-06  0.305E-03    0.62       4.1  T
   7    -94.0937711 -0.425787E-07  0.213E-03    0.62       5.9  T
   8    -94.0937711 -0.587917E-07  0.988E-04    0.62      12.8  T
   9    -94.0937711 -0.114133E-07  0.480E-04    0.62      26.2  T
     SCC iter.                  ...        0 min,  0.038 sec
     gradient                   ...        0 min,  0.011 sec
 * total energy  :   -92.9127549 Eh     change       -0.1066239E-02 Eh
   gradient norm :     0.0126554 Eh/α   predicted    -0.1124423E-02 (   5.46%)
   displ. norm   :     0.4477773 α      lambda       -0.1172510E-02
   maximum displ.:     0.2582237 α      in ANC's #1, #9, #10, ...

........................................................................
.............................. CYCLE   16 ..............................
........................................................................
   1    -94.0948629 -0.940949E+02  0.935E-02    0.66       0.0  T
   2    -94.0948831 -0.201830E-04  0.578E-02    0.66       1.0  T
   3    -94.0948817  0.139491E-05  0.319E-02    0.66       1.0  T
   4    -94.0948307  0.509403E-04  0.346E-02    0.64       1.0  T
   5    -94.0948898 -0.590406E-04  0.878E-03    0.66       1.4  T
   6    -94.0948940 -0.425687E-05  0.281E-03    0.66       4.5  T
   7    -94.0948942 -0.178676E-06  0.147E-03    0.66       8.6  T
   8    -94.0948942 -0.400409E-08  0.994E-04    0.66      12.7  T
   9    -94.0948942 -0.564673E-08  0.319E-04    0.66      39.5  T
     SCC iter.                  ...        0 min,  0.038 sec
     gradient                   ...        0 min,  0.011 sec
 * total energy  :   -92.9136215 Eh     change       -0.8666130E-03 Eh
   gradient norm :     0.0113734 Eh/α   predicted    -0.7038089E-03 ( -18.79%)
   displ. norm   :     0.4729270 α      lambda       -0.1026045E-02
   maximum displ.:     0.2828201 α      in ANC's #1, #9, #10, ...

........................................................................
.............................. CYCLE   17 ..............................
........................................................................
   1    -94.0982729 -0.940983E+02  0.819E-02    0.69       0.0  T
   2    -94.0982826 -0.969639E-05  0.459E-02    0.69       1.0  T
   3    -94.0982834 -0.779167E-06  0.262E-02    0.68       1.0  T
   4    -94.0982842 -0.819746E-06  0.113E-02    0.69       1.1  T
   5    -94.0982847 -0.478423E-06  0.568E-03    0.68       2.2  T
   6    -94.0982853 -0.692428E-06  0.295E-03    0.69       4.3  T
   7    -94.0982856 -0.244244E-06  0.182E-03    0.68       6.9  T
   8    -94.0982857 -0.989592E-07  0.892E-04    0.69      14.1  T
   9    -94.0982857 -0.607041E-08  0.403E-04    0.69      31.3  T
     SCC iter.                  ...        0 min,  0.039 sec
     gradient                   ...        0 min,  0.011 sec
 * total energy  :   -92.9144338 Eh     change       -0.8123217E-03 Eh
   gradient norm :     0.0114508 Eh/α   predicted    -0.6277671E-03 ( -22.72%)
   displ. norm   :     0.5041045 α      lambda       -0.9357810E-03
   maximum displ.:     0.2860093 α      in ANC's #1, #16, #10, ...

........................................................................
.............................. CYCLE   18 ..............................
........................................................................
   1    -94.1009215 -0.941009E+02  0.871E-02    0.69       0.0  T
   2    -94.1009254 -0.389773E-05  0.474E-02    0.70       1.0  T
   3    -94.1009062  0.191978E-04  0.278E-02    0.69       1.0  T
   4    -94.1008647  0.414850E-04  0.326E-02    0.71       1.0  T
   5    -94.1009281 -0.633346E-04  0.518E-03    0.70       2.4  T
   6    -94.1009281 -0.563099E-07  0.236E-03    0.69       5.3  T
   7    -94.1009283 -0.170906E-06  0.982E-04    0.70      12.8  T
   8    -94.1009283  0.386237E-09  0.735E-04    0.70      17.1  T
     SCC iter.                  ...        0 min,  0.034 sec
     gradient                   ...        0 min,  0.011 sec
 * total energy  :   -92.9151205 Eh     change       -0.6867579E-03 Eh
   gradient norm :     0.0121366 Eh/α   predicted    -0.5867921E-03 ( -14.56%)
   displ. norm   :     0.4288644 α      lambda       -0.5782128E-03
   maximum displ.:     0.2537073 α      in ANC's #1, #10, #16, ...

........................................................................
.............................. CYCLE   19 ..............................
........................................................................
   1    -94.1001139 -0.941001E+02  0.665E-02    0.70       0.0  T
   2    -94.1001168 -0.293371E-05  0.385E-02    0.70       1.0  T
   3    -94.1001150  0.178568E-05  0.184E-02    0.71       1.0  T
   4    -94.1001114  0.361269E-05  0.127E-02    0.70       1.0  T
   5    -94.1001169 -0.547278E-05  0.371E-03    0.71       3.4  T
   6    -94.1001175 -0.623161E-06  0.201E-03    0.70       6.3  T
   7    -94.1001176 -0.121959E-06  0.945E-04    0.70      13.3  T
   8    -94.1001176 -0.466274E-08  0.374E-04    0.70      33.6  T
     SCC iter.                  ...        0 min,  0.034 sec
     gradient                   ...        0 min,  0.011 sec
 * total energy  :   -92.9155200 Eh     change       -0.3995016E-03 Eh
   gradient norm :     0.0121433 Eh/α   predicted    -0.3422847E-03 ( -14.32%)
   displ. norm   :     0.3646891 α      lambda       -0.5047324E-03
   maximum displ.:     0.2074125 α      in ANC's #1, #10, #16, ...

........................................................................
.............................. CYCLE   20 ..............................
........................................................................
   1    -94.1055820 -0.941056E+02  0.599E-02    0.70       0.0  T
   2    -94.1055868 -0.474383E-05  0.354E-02    0.71       1.0  T
   3    -94.1055659  0.209291E-04  0.224E-02    0.69       1.0  T
   4    -94.1055543  0.115773E-04  0.254E-02    0.72       1.0  T
   5    -94.1055895 -0.352194E-04  0.254E-03    0.70       5.0  T
   6    -94.1055895 -0.326089E-07  0.133E-03    0.70       9.5  T
   7    -94.1055896 -0.311147E-07  0.589E-04    0.70      21.4  T
   8    -94.1055896  0.122489E-08  0.335E-04    0.70      37.6  T
     SCC iter.                  ...        0 min,  0.035 sec
     gradient                   ...        0 min,  0.011 sec
 * total energy  :   -92.9158135 Eh     change       -0.2934658E-03 Eh
   gradient norm :     0.0104308 Eh/α   predicted    -0.2859322E-03 (  -2.57%)
   displ. norm   :     0.3467821 α      lambda       -0.4524172E-03
   maximum displ.:     0.2215961 α      in ANC's #1, #10, #16, ...
 * RMSD in coord.:     1.0046809 α      energy gain  -0.7756673E+00 Eh

generating ANC from model Hessian ...
Using Lindh-Hessian (1995)
 Shifting diagonal of input Hessian by   9.863856482290562E-003
 Lowest  eigenvalues of input Hessian
    0.000000    0.000000    0.000000    0.000000    0.000000    0.000000
    0.010000    0.010045    0.010239    0.010273    0.010314    0.010462
    0.010699    0.010920    0.011137    0.011741    0.012771    0.013238
 Highest eigenvalues
    1.908064    1.908236    2.088073    2.088732    2.093741    2.094218
 

........................................................................
.............................. CYCLE   21 ..............................
........................................................................
   1    -94.1029318 -0.941029E+02  0.454E-02    0.70       0.0  T
   2    -94.1029308  0.960195E-06  0.272E-02    0.71       1.0  T
   3    -94.1028722  0.586771E-04  0.355E-02    0.69       1.0  T
   4    -94.1029348 -0.626297E-04  0.875E-03    0.71       1.4  T
   5    -94.1029367 -0.194068E-05  0.207E-03    0.70       6.1  T
   6    -94.1029367 -0.176961E-07  0.143E-03    0.71       8.8  T
   7    -94.1029368 -0.118313E-07  0.743E-04    0.70      17.0  T
   8    -94.1029368 -0.312062E-08  0.304E-04    0.70      41.4  T
     SCC iter.                  ...        0 min,  0.035 sec
     gradient                   ...        0 min,  0.011 sec
 * total energy  :   -92.9161382 Eh     change       -0.3247271E-03 Eh
   gradient norm :     0.0095892 Eh/α   predicted     0.0000000E+00 (-100.00%)
   displ. norm   :     0.1040828 α      lambda       -0.3042204E-03
   maximum displ.:     0.0457699 α      in ANC's #2, #12, #20, ...

........................................................................
.............................. CYCLE   22 ..............................
........................................................................
   1    -94.1041437 -0.941041E+02  0.375E-02    0.70       0.0  T
   2    -94.1041408  0.291618E-05  0.214E-02    0.69       1.0  T
   3    -94.1040924  0.483973E-04  0.303E-02    0.72       1.0  T
   4    -94.1041478 -0.554135E-04  0.745E-03    0.70       1.7  T
   5    -94.1041480 -0.163428E-06  0.371E-03    0.70       3.4  T
   6    -94.1041481 -0.905542E-07  0.133E-03    0.70       9.5  T
   7    -94.1041482 -0.553123E-07  0.604E-04    0.70      20.9  T
   8    -94.1041482 -0.963823E-09  0.383E-04    0.70      32.9  T
     SCC iter.                  ...        0 min,  0.034 sec
     gradient                   ...        0 min,  0.011 sec
 * total energy  :   -92.9163678 Eh     change       -0.2295743E-03 Eh
   gradient norm :     0.0051959 Eh/α   predicted    -0.1537942E-03 ( -33.01%)
   displ. norm   :     0.2086441 α      lambda       -0.3227481E-03
   maximum displ.:     0.1029828 α      in ANC's #2, #12, #7, ...

........................................................................
.............................. CYCLE   23 ..............................
........................................................................
   1    -94.1044807 -0.941045E+02  0.464E-02    0.69       0.0  T
   2    -94.1044647  0.160125E-04  0.346E-02    0.71       1.0  T
   3    -94.1044247  0.400008E-04  0.363E-02    0.68       1.0  T
   4    -94.1044845 -0.598311E-04  0.102E-02    0.70       1.2  T
   5    -94.1044887 -0.416729E-05  0.265E-03    0.70       4.7  T
   6    -94.1044888 -0.516298E-07  0.162E-03    0.69       7.8  T
   7    -94.1044888 -0.283589E-07  0.794E-04    0.70      15.9  T
   8    -94.1044888 -0.444425E-08  0.484E-04    0.70      26.0  T
     SCC iter.                  ...        0 min,  0.034 sec
     gradient                   ...        0 min,  0.011 sec
 * total energy  :   -92.9165732 Eh     change       -0.2054257E-03 Eh
   gradient norm :     0.0029375 Eh/α   predicted    -0.1684083E-03 ( -18.02%)
   displ. norm   :     0.1696437 α      lambda       -0.1260562E-03
   maximum displ.:     0.0999701 α      in ANC's #2, #12, #8, ...

........................................................................
.............................. CYCLE   24 ..............................
........................................................................
   1    -94.1041766 -0.941042E+02  0.273E-02    0.69       0.0  T
   2    -94.1041761  0.505748E-06  0.166E-02    0.70       1.0  T
   3    -94.1041603  0.157630E-04  0.193E-02    0.69       1.0  T
   4    -94.1041751 -0.148081E-04  0.722E-03    0.70       1.7  T
   5    -94.1041778 -0.264310E-05  0.113E-03    0.69      11.2  T
   6    -94.1041778 -0.364200E-08  0.718E-04    0.69      17.5  T
   7    -94.1041778 -0.319561E-08  0.502E-04    0.69      25.1  T
     SCC iter.                  ...        0 min,  0.030 sec
     gradient                   ...        0 min,  0.011 sec
 * total energy  :   -92.9166750 Eh     change       -0.1017186E-03 Eh
   gradient norm :     0.0038933 Eh/α   predicted    -0.6486674E-04 ( -36.23%)
   displ. norm   :     0.2514211 α      lambda       -0.1687573E-03
   maximum displ.:     0.1504476 α      in ANC's #2, #8, #7, ...

........................................................................
.............................. CYCLE   25 ..............................
........................................................................
   1    -94.1036247 -0.941036E+02  0.382E-02    0.69       0.0  T
   2    -94.1036255 -0.799042E-06  0.227E-02    0.69       1.0  T
   3    -94.1036211  0.442974E-05  0.147E-02    0.69       1.0  T
   4    -94.1036168  0.430349E-05  0.127E-02    0.70       1.0  T
   5    -94.1036261 -0.927204E-05  0.269E-03    0.69       4.7  T
   6    -94.1036262 -0.173190E-06  0.152E-03    0.69       8.3  T
   7    -94.1036262 -0.679756E-08  0.108E-03    0.69      11.6  T
   8    -94.1036263 -0.461806E-08  0.506E-04    0.69      24.9  T
   9    -94.1036263  0.835740E-10  0.255E-04    0.69      49.5  T
     SCC iter.                  ...        0 min,  0.036 sec
     gradient                   ...        0 min,  0.010 sec
 * total energy  :   -92.9168134 Eh     change       -0.1384735E-03 Eh
   gradient norm :     0.0042241 Eh/α   predicted    -0.8971486E-04 ( -35.21%)
   displ. norm   :     0.3005644 α      lambda       -0.1789188E-03
   maximum displ.:     0.1885707 α      in ANC's #2, #8, #3, ...

........................................................................
.............................. CYCLE   26 ..............................
........................................................................
   1    -94.1034296 -0.941034E+02  0.482E-02    0.69       0.0  T
   2    -94.1034316 -0.202338E-05  0.280E-02    0.69       1.0  T
   3    -94.1034304  0.121994E-05  0.169E-02    0.69       1.0  T
   4    -94.1034235  0.691690E-05  0.128E-02    0.69       1.0  T
   5    -94.1034319 -0.837851E-05  0.414E-03    0.69       3.0  T
   6    -94.1034325 -0.650493E-06  0.202E-03    0.69       6.2  T
   7    -94.1034326 -0.170704E-07  0.149E-03    0.69       8.5  T
   8    -94.1034326  0.805201E-09  0.892E-04    0.69      14.1  T
   9    -94.1034326 -0.913546E-08  0.357E-04    0.69      35.2  T
     SCC iter.                  ...        0 min,  0.035 sec
     gradient                   ...        0 min,  0.010 sec
 * total energy  :   -92.9169582 Eh     change       -0.1447869E-03 Eh
   gradient norm :     0.0041205 Eh/α   predicted    -0.9754222E-04 ( -32.63%)
   displ. norm   :     0.2882846 α      lambda       -0.1523040E-03
   maximum displ.:     0.1891002 α      in ANC's #2, #8, #3, ...

........................................................................
.............................. CYCLE   27 ..............................
........................................................................
   1    -94.1037608 -0.941038E+02  0.482E-02    0.69       0.0  T
   2    -94.1037528  0.804123E-05  0.318E-02    0.68       1.0  T
   3    -94.1037291  0.237458E-04  0.287E-02    0.70       1.0  T
   4    -94.1037490 -0.199766E-04  0.204E-02    0.68       1.0  T
   5    -94.1037668 -0.177969E-04  0.342E-03    0.69       3.7  T
   6    -94.1037669 -0.546378E-07  0.246E-03    0.69       5.1  T
   7    -94.1037669 -0.166651E-07  0.179E-03    0.69       7.0  T
   8    -94.1037669 -0.968669E-09  0.952E-04    0.69      13.2  T
   9    -94.1037669 -0.137680E-07  0.349E-04    0.69      36.1  T
     SCC iter.                  ...        0 min,  0.035 sec
     gradient                   ...        0 min,  0.010 sec
 * total energy  :   -92.9170834 Eh     change       -0.1251465E-03 Eh
   gradient norm :     0.0032751 Eh/α   predicted    -0.8249105E-04 ( -34.08%)
   displ. norm   :     0.2652474 α      lambda       -0.1320757E-03
   maximum displ.:     0.1821174 α      in ANC's #2, #3, #8, ...

........................................................................
.............................. CYCLE   28 ..............................
........................................................................
   1    -94.1052027 -0.941052E+02  0.485E-02    0.69       0.0  T
   2    -94.1052060 -0.330669E-05  0.289E-02    0.69       1.0  T
   3    -94.1052062 -0.181972E-06  0.170E-02    0.69       1.0  T
   4    -94.1051920  0.141691E-04  0.170E-02    0.68       1.0  T
   5    -94.1052074 -0.153703E-04  0.548E-03    0.69       2.3  T
   6    -94.1052081 -0.694343E-06  0.346E-03    0.69       3.6  T
   7    -94.1052081 -0.209553E-07  0.244E-03    0.69       5.2  T
   8    -94.1052081 -0.220117E-07  0.106E-03    0.69      11.9  T
   9    -94.1052082 -0.202173E-07  0.379E-04    0.69      33.3  T
  10    -94.1052082 -0.765766E-09  0.252E-04    0.69      50.0  T
     SCC iter.                  ...        0 min,  0.039 sec
     gradient                   ...        0 min,  0.010 sec
 * total energy  :   -92.9171927 Eh     change       -0.1093612E-03 Eh
   gradient norm :     0.0024485 Eh/α   predicted    -0.7068467E-04 ( -35.37%)
   displ. norm   :     0.2585616 α      lambda       -0.1215420E-03
   maximum displ.:     0.1798932 α      in ANC's #2, #3, #8, ...

........................................................................
.............................. CYCLE   29 ..............................
........................................................................
   1    -94.1059180 -0.941059E+02  0.669E-02    0.69       0.0  T
   2    -94.1059029  0.150953E-04  0.429E-02    0.67       1.0  T
   3    -94.1058962  0.676157E-05  0.306E-02    0.70       1.0  T
   4    -94.1059152 -0.190322E-04  0.238E-02    0.67       1.0  T
   5    -94.1059338 -0.185472E-04  0.761E-03    0.69       1.7  T
   6    -94.1059344 -0.678662E-06  0.515E-03    0.68       2.4  T
   7    -94.1059346 -0.137401E-06  0.281E-03    0.68       4.5  T
   8    -94.1059346 -0.625897E-07  0.974E-04    0.68      12.9  T
   9    -94.1059346 -0.857499E-08  0.460E-04    0.68      27.4  T
     SCC iter.                  ...        0 min,  0.035 sec
     gradient                   ...        0 min,  0.010 sec
 * total energy  :   -92.9172956 Eh     change       -0.1028336E-03 Eh
   gradient norm :     0.0028547 Eh/α   predicted    -0.6483657E-04 ( -36.95%)
   displ. norm   :     0.2903509 α      lambda       -0.1372562E-03
   maximum displ.:     0.2026204 α      in ANC's #2, #3, #8, ...

........................................................................
.............................. CYCLE   30 ..............................
........................................................................
   1    -94.1068936 -0.941069E+02  0.971E-02    0.69       0.0  T
   2    -94.1069096 -0.159712E-04  0.598E-02    0.69       1.0  T
   3    -94.1069165 -0.684768E-05  0.292E-02    0.69       1.0  T
   4    -94.1069128  0.369369E-05  0.208E-02    0.69       1.0  T
   5    -94.1069153 -0.253503E-05  0.110E-02    0.68       1.1  T
   6    -94.1069158 -0.479007E-06  0.982E-03    0.69       1.3  T
   7    -94.1069191 -0.337214E-05  0.375E-03    0.69       3.4  T
   8    -94.1069192 -0.587550E-07  0.125E-03    0.69      10.1  T
   9    -94.1069192 -0.173333E-07  0.697E-04    0.69      18.1  T
  10    -94.1069192 -0.401980E-08  0.430E-04    0.69      29.3  T
     SCC iter.                  ...        0 min,  0.039 sec
     gradient                   ...        0 min,  0.010 sec
 * total energy  :   -92.9174249 Eh     change       -0.1293458E-03 Eh
   gradient norm :     0.0038267 Eh/α   predicted    -0.7441697E-04 ( -42.47%)
   displ. norm   :     0.4539990 α      lambda       -0.2431184E-03
   maximum displ.:     0.3111196 α      in ANC's #2, #3, #5, ...

........................................................................
.............................. CYCLE   31 ..............................
........................................................................
   1    -94.1073241 -0.941073E+02  0.220E-01    0.70       0.0  T
   2    -94.1073944 -0.703199E-04  0.134E-01    0.70       1.0  T
   3    -94.1074264 -0.319633E-04  0.599E-02    0.69       1.0  T
   4    -94.1073529  0.734740E-04  0.546E-02    0.71       1.0  T
   5    -94.1074071 -0.542367E-04  0.291E-02    0.68       1.0  T
   6    -94.1074373 -0.301874E-04  0.176E-02    0.70       1.0  T
   7    -94.1074443 -0.692714E-05  0.789E-03    0.69       1.6  T
   8    -94.1074445 -0.273116E-06  0.266E-03    0.69       4.7  T
   9    -94.1074446 -0.318373E-07  0.144E-03    0.69       8.7  T
  10    -94.1074446 -0.205935E-07  0.909E-04    0.69      13.9  T
  11    -94.1074446 -0.512257E-08  0.355E-04    0.69      35.5  T
     SCC iter.                  ...        0 min,  0.042 sec
     gradient                   ...        0 min,  0.010 sec
 * total energy  :   -92.9176727 Eh     change       -0.2477827E-03 Eh
   gradient norm :     0.0059668 Eh/α   predicted    -0.1466155E-03 ( -40.83%)
   displ. norm   :     0.4377654 α      lambda       -0.2659109E-03
   maximum displ.:     0.2971814 α      in ANC's #2, #3, #5, ...

........................................................................
.............................. CYCLE   32 ..............................
........................................................................
   1    -94.1066588 -0.941067E+02  0.248E-01    0.70       0.0  T
   2    -94.1067296 -0.708329E-04  0.151E-01    0.71       1.0  T
   3    -94.1067667 -0.370720E-04  0.649E-02    0.69       1.0  T
   4    -94.1066789  0.878167E-04  0.610E-02    0.72       1.0  T
   5    -94.1067478 -0.689174E-04  0.337E-02    0.68       1.0  T
   6    -94.1067925 -0.447001E-04  0.181E-02    0.70       1.0  T
   7    -94.1067997 -0.716109E-05  0.882E-03    0.70       1.4  T
   8    -94.1068000 -0.301439E-06  0.321E-03    0.70       3.9  T
   9    -94.1068000 -0.614166E-07  0.151E-03    0.70       8.3  T
  10    -94.1068001 -0.177373E-07  0.986E-04    0.70      12.8  T
  11    -94.1068001 -0.435945E-08  0.392E-04    0.70      32.2  T
     SCC iter.                  ...        0 min,  0.043 sec
     gradient                   ...        0 min,  0.010 sec
 * total energy  :   -92.9179418 Eh     change       -0.2691008E-03 Eh
   gradient norm :     0.0083156 Eh/α   predicted    -0.1584379E-03 ( -41.12%)
   displ. norm   :     0.9260660 α      lambda       -0.6667875E-03
   maximum displ.:     0.6304385 α      in ANC's #2, #3, #28, ...

........................................................................
.............................. CYCLE   33 ..............................
........................................................................
   1    -94.1004137 -0.941004E+02  0.673E-01    0.72       0.0  T
   2    -94.1007963 -0.382616E-03  0.421E-01    0.74       1.0  T
   3    -94.1010850 -0.288655E-03  0.170E-01    0.68       1.0  T
   4    -94.1008778  0.207185E-03  0.142E-01    0.76       1.0  T
   5    -94.1009085 -0.307390E-04  0.988E-02    0.66       1.0  T
   6    -94.1013201 -0.411550E-03  0.482E-02    0.73       1.0  T
   7    -94.1013867 -0.666902E-04  0.237E-02    0.71       1.0  T
   8    -94.1013888 -0.206686E-05  0.102E-02    0.71       1.2  T
   9    -94.1013895 -0.676092E-06  0.361E-03    0.71       3.5  T
  10    -94.1013895 -0.411130E-07  0.236E-03    0.71       5.3  T
  11    -94.1013896 -0.216024E-07  0.116E-03    0.71      10.9  T
  12    -94.1013896 -0.178418E-07  0.557E-04    0.71      22.6  T
  13    -94.1013896 -0.443940E-08  0.298E-04    0.71      42.3  T
     SCC iter.                  ...        0 min,  0.050 sec
     gradient                   ...        0 min,  0.010 sec
 * total energy  :   -92.9183873 Eh     change       -0.4455277E-03 Eh
   gradient norm :     0.0171194 Eh/α   predicted    -0.6193167E-03 (  39.01%)
   displ. norm   :     0.2932037 α      lambda       -0.4130294E-03
   maximum displ.:     0.1130083 α      in ANC's #8, #7, #28, ...

........................................................................
.............................. CYCLE   34 ..............................
........................................................................
   1    -94.1020349 -0.941020E+02  0.276E-01    0.73       0.0  T
   2    -94.1017214  0.313474E-03  0.251E-01    0.78       1.0  T
   3    -94.1020803 -0.358939E-03  0.927E-02    0.71       1.0  T
   4    -94.1021383 -0.579167E-04  0.669E-02    0.77       1.0  T
   5    -94.1022425 -0.104207E-03  0.427E-02    0.72       1.0  T
   6    -94.1023050 -0.625597E-04  0.184E-02    0.74       1.0  T
   7    -94.1023066 -0.158241E-05  0.111E-02    0.74       1.1  T
   8    -94.1023071 -0.542822E-06  0.533E-03    0.74       2.4  T
   9    -94.1023074 -0.269130E-06  0.137E-03    0.74       9.2  T
  10    -94.1023074 -0.412948E-08  0.874E-04    0.74      14.4  T
  11    -94.1023074 -0.468624E-08  0.446E-04    0.74      28.3  T
     SCC iter.                  ...        0 min,  0.042 sec
     gradient                   ...        0 min,  0.011 sec
 * total energy  :   -92.9186203 Eh     change       -0.2329352E-03 Eh
   gradient norm :     0.0163367 Eh/α   predicted    -0.2242690E-03 (  -3.72%)
   displ. norm   :     0.2968414 α      lambda       -0.8264838E-03
   maximum displ.:     0.2155059 α      in ANC's #2, #3, #5, ...

........................................................................
.............................. CYCLE   35 ..............................
........................................................................
   1    -94.1009943 -0.941010E+02  0.142E-01    0.75       0.0  T
   2    -94.1003935  0.600802E-03  0.158E-01    0.85       1.0  T
   3    -94.1010721 -0.678521E-03  0.740E-02    0.76       1.0  T
   4    -94.1012277 -0.155624E-03  0.263E-02    0.79       1.0  T
   5    -94.1012124  0.152762E-04  0.221E-02    0.78       1.0  T
   6    -94.1012332 -0.208045E-04  0.926E-03    0.79       1.4  T
   7    -94.1012333 -0.115905E-06  0.595E-03    0.78       2.1  T
   8    -94.1012335 -0.202458E-06  0.287E-03    0.79       4.4  T
   9    -94.1012337 -0.146865E-06  0.974E-04    0.79      12.9  T
  10    -94.1012337 -0.367918E-08  0.560E-04    0.79      22.5  T
     SCC iter.                  ...        0 min,  0.043 sec
     gradient                   ...        0 min,  0.011 sec
 * total energy  :   -92.9188962 Eh     change       -0.2759918E-03 Eh
   gradient norm :     0.0134466 Eh/α   predicted    -0.4496549E-03 (  62.92%)
   displ. norm   :     0.2859875 α      lambda       -0.6233635E-03
   maximum displ.:     0.1954621 α      in ANC's #2, #5, #3, ...

........................................................................
.............................. CYCLE   36 ..............................
........................................................................
   1    -94.1008719 -0.941009E+02  0.237E-01    0.80       0.0  T
   2    -94.1009165 -0.446584E-04  0.124E-01    0.81       1.0  T
   3    -94.1009141  0.247476E-05  0.703E-02    0.78       1.0  T
   4    -94.1009231 -0.900097E-05  0.552E-02    0.82       1.0  T
   5    -94.1009568 -0.337347E-04  0.294E-02    0.79       1.0  T
   6    -94.1009825 -0.256867E-04  0.159E-02    0.80       1.0  T
   7    -94.1009893 -0.680305E-05  0.871E-03    0.80       1.4  T
   8    -94.1009898 -0.555670E-06  0.423E-03    0.80       3.0  T
   9    -94.1009901 -0.298815E-06  0.126E-03    0.80      10.0  T
  10    -94.1009901 -0.102229E-07  0.767E-04    0.80      16.4  T
  11    -94.1009902 -0.735071E-09  0.413E-04    0.80      30.5  T
     SCC iter.                  ...        0 min,  0.047 sec
     gradient                   ...        0 min,  0.011 sec
 * total energy  :   -92.9193341 Eh     change       -0.4378649E-03 Eh
   gradient norm :     0.0088715 Eh/α   predicted    -0.3371743E-03 ( -23.00%)
   displ. norm   :     0.3251150 α      lambda       -0.4532158E-03
   maximum displ.:     0.2151502 α      in ANC's #2, #5, #3, ...

........................................................................
.............................. CYCLE   37 ..............................
........................................................................
   1    -94.1035411 -0.941035E+02  0.160E-01    0.82       0.0  T
   2    -94.1035433 -0.217720E-05  0.105E-01    0.83       1.0  T
   3    -94.1035540 -0.107341E-04  0.580E-02    0.81       1.0  T
   4    -94.1035589 -0.484285E-05  0.405E-02    0.83       1.0  T
   5    -94.1035634 -0.456213E-05  0.252E-02    0.80       1.0  T
   6    -94.1035925 -0.290904E-04  0.125E-02    0.82       1.0  T
   7    -94.1035966 -0.411186E-05  0.739E-03    0.82       1.7  T
   8    -94.1035968 -0.178891E-06  0.275E-03    0.82       4.6  T
   9    -94.1035969 -0.595073E-07  0.913E-04    0.82      13.8  T
  10    -94.1035969 -0.217413E-08  0.597E-04    0.82      21.1  T
     SCC iter.                  ...        0 min,  0.040 sec
     gradient                   ...        0 min,  0.010 sec
 * total energy  :   -92.9196724 Eh     change       -0.3382647E-03 Eh
   gradient norm :     0.0066860 Eh/α   predicted    -0.2505608E-03 ( -25.93%)
   displ. norm   :     0.3962130 α      lambda       -0.4122542E-03
   maximum displ.:     0.2440985 α      in ANC's #2, #5, #3, ...

........................................................................
.............................. CYCLE   38 ..............................
........................................................................
   1    -94.1046901 -0.941047E+02  0.118E-01    0.83       0.0  T
   2    -94.1046846  0.540410E-05  0.898E-02    0.84       1.0  T
   3    -94.1046984 -0.137982E-04  0.480E-02    0.83       1.0  T
   4    -94.1046813  0.171416E-04  0.355E-02    0.85       1.0  T
   5    -94.1046963 -0.149664E-04  0.195E-02    0.82       1.0  T
   6    -94.1047170 -0.207263E-04  0.788E-03    0.84       1.6  T
   7    -94.1047183 -0.127123E-05  0.501E-03    0.83       2.5  T
   8    -94.1047184 -0.121080E-06  0.184E-03    0.83       6.8  T
   9    -94.1047184 -0.162056E-07  0.750E-04    0.83      16.8  T
  10    -94.1047184 -0.476589E-09  0.444E-04    0.83      28.4  T
     SCC iter.                  ...        0 min,  0.041 sec
     gradient                   ...        0 min,  0.011 sec
 * total energy  :   -92.9199856 Eh     change       -0.3131857E-03 Eh
   gradient norm :     0.0055744 Eh/α   predicted    -0.2384888E-03 ( -23.85%)
   displ. norm   :     0.4334040 α      lambda       -0.3286953E-03
   maximum displ.:     0.2632711 α      in ANC's #2, #5, #3, ...

........................................................................
.............................. CYCLE   39 ..............................
........................................................................
   1    -94.1037030 -0.941037E+02  0.131E-01    0.85       0.0  T
   2    -94.1036596  0.434566E-04  0.119E-01    0.86       1.0  T
   3    -94.1037140 -0.544656E-04  0.541E-02    0.84       1.0  T
   4    -94.1036951  0.189369E-04  0.375E-02    0.87       1.0  T
   5    -94.1037107 -0.156222E-04  0.260E-02    0.84       1.0  T
   6    -94.1037476 -0.368346E-04  0.780E-03    0.85       1.6  T
   7    -94.1037477 -0.170778E-06  0.586E-03    0.85       2.1  T
   8    -94.1037480 -0.315942E-06  0.228E-03    0.85       5.5  T
   9    -94.1037481 -0.228346E-07  0.777E-04    0.85      16.2  T
  10    -94.1037481 -0.866422E-09  0.442E-04    0.85      28.5  T
     SCC iter.                  ...        0 min,  0.040 sec
     gradient                   ...        0 min,  0.011 sec
 * total energy  :   -92.9202313 Eh     change       -0.2457158E-03 Eh
   gradient norm :     0.0052274 Eh/α   predicted    -0.1952226E-03 ( -20.55%)
   displ. norm   :     0.3411144 α      lambda       -0.2672332E-03
   maximum displ.:     0.1846626 α      in ANC's #5, #2, #12, ...

........................................................................
.............................. CYCLE   40 ..............................
........................................................................
   1    -94.1076120 -0.941076E+02  0.676E-02    0.85       0.0  T
   2    -94.1076137 -0.176603E-05  0.404E-02    0.86       1.0  T
   3    -94.1076012  0.125150E-04  0.286E-02    0.84       1.0  T
   4    -94.1075803  0.208677E-04  0.270E-02    0.87       1.0  T
   5    -94.1076176 -0.372207E-04  0.872E-03    0.85       1.4  T
   6    -94.1076186 -0.105569E-05  0.319E-03    0.85       4.0  T
   7    -94.1076187 -0.561748E-07  0.229E-03    0.85       5.5  T
   8    -94.1076187 -0.434367E-07  0.115E-03    0.85      11.0  T
   9    -94.1076187 -0.851644E-08  0.398E-04    0.85      31.7  T
  10    -94.1076187 -0.184758E-08  0.211E-04    0.85      59.6  T
     SCC iter.                  ...        0 min,  0.039 sec
     gradient                   ...        0 min,  0.010 sec
 * total energy  :   -92.9203841 Eh     change       -0.1527895E-03 Eh
   gradient norm :     0.0065981 Eh/α   predicted    -0.1491647E-03 (  -2.37%)
   displ. norm   :     0.5187613 α      lambda       -0.2854260E-03
   maximum displ.:     0.3113458 α      in ANC's #2, #5, #3, ...

........................................................................
.............................. CYCLE   41 ..............................
........................................................................
   1    -94.1018918 -0.941019E+02  0.159E-01    0.86       0.0  T
   2    -94.1019015 -0.962853E-05  0.122E-01    0.86       1.0  T
   3    -94.1019350 -0.335466E-04  0.582E-02    0.85       1.0  T
   4    -94.1019307  0.434093E-05  0.346E-02    0.87       1.0  T
   5    -94.1018908  0.399049E-04  0.327E-02    0.84       1.0  T
   6    -94.1019506 -0.598032E-04  0.104E-02    0.86       1.2  T
   7    -94.1019517 -0.110267E-05  0.709E-03    0.86       1.8  T
   8    -94.1019522 -0.563110E-06  0.323E-03    0.86       3.9  T
   9    -94.1019523 -0.438510E-07  0.901E-04    0.86      14.0  T
  10    -94.1019523 -0.451200E-08  0.509E-04    0.86      24.8  T
     SCC iter.                  ...        0 min,  0.039 sec
     gradient                   ...        0 min,  0.010 sec
 * total energy  :   -92.9205371 Eh     change       -0.1530638E-03 Eh
   gradient norm :     0.0059116 Eh/α   predicted    -0.1811196E-03 (  18.33%)
   displ. norm   :     0.1560727 α      lambda       -0.1409098E-03
   maximum displ.:     0.0992233 α      in ANC's #5, #10, #1, ...

........................................................................
.............................. CYCLE   42 ..............................
........................................................................
   1    -94.1053962 -0.941054E+02  0.340E-02    0.86       0.0  T
   2    -94.1053963 -0.507403E-07  0.242E-02    0.85       1.0  T
   3    -94.1053962  0.442837E-07  0.156E-02    0.86       1.0  T
   4    -94.1053921  0.409547E-05  0.138E-02    0.85       1.0  T
   5    -94.1053984 -0.626909E-05  0.266E-03    0.86       4.7  T
   6    -94.1053987 -0.264141E-06  0.934E-04    0.85      13.5  T
   7    -94.1053987 -0.279364E-07  0.530E-04    0.85      23.8  T
     SCC iter.                  ...        0 min,  0.027 sec
     gradient                   ...        0 min,  0.010 sec
 * total energy  :   -92.9206465 Eh     change       -0.1093582E-03 Eh
   gradient norm :     0.0033908 Eh/α   predicted    -0.7217127E-04 ( -34.00%)
   displ. norm   :     0.3019460 α      lambda       -0.1665909E-03
   maximum displ.:     0.1955017 α      in ANC's #5, #10, #1, ...
 * RMSD in coord.:     0.7740235 α      energy gain  -0.4832974E-02 Eh

generating ANC from model Hessian ...
Using Lindh-Hessian (1995)
 Shifting diagonal of input Hessian by   9.898948096230863E-003
 Lowest  eigenvalues of input Hessian
    0.000000    0.000000    0.000000    0.000000    0.000000    0.000000
    0.010000    0.010097    0.010246    0.010310    0.010347    0.010580
    0.010652    0.010964    0.011162    0.011703    0.012865    0.013324
 Highest eigenvalues
    1.903378    1.909276    2.068297    2.089181    2.095182    2.106727
 

........................................................................
.............................. CYCLE   43 ..............................
........................................................................
   1    -94.1074049 -0.941074E+02  0.664E-02    0.85       0.0  T
   2    -94.1073992  0.568949E-05  0.567E-02    0.84       1.0  T
   3    -94.1074074 -0.821998E-05  0.284E-02    0.85       1.0  T
   4    -94.1073882  0.192280E-04  0.235E-02    0.84       1.0  T
   5    -94.1074107 -0.224815E-04  0.804E-03    0.85       1.6  T
   6    -94.1074135 -0.284180E-05  0.398E-03    0.85       3.2  T
   7    -94.1074138 -0.275705E-06  0.237E-03    0.85       5.3  T
   8    -94.1074138 -0.185699E-07  0.108E-03    0.85      11.7  T
   9    -94.1074138 -0.115930E-07  0.375E-04    0.85      33.6  T
  10    -94.1074138 -0.842491E-09  0.203E-04    0.85      62.0  T
     SCC iter.                  ...        0 min,  0.039 sec
     gradient                   ...        0 min,  0.010 sec
 * total energy  :   -92.9207565 Eh     change       -0.1099966E-03 Eh
   gradient norm :     0.0022538 Eh/α   predicted     0.0000000E+00 (-100.00%)
   displ. norm   :     0.0501016 α      lambda       -0.4374969E-04
   maximum displ.:     0.0261228 α      in ANC's #1, #4, #16, ...

........................................................................
.............................. CYCLE   44 ..............................
........................................................................
   1    -94.1067162 -0.941067E+02  0.322E-02    0.85       0.0  T
   2    -94.1067049  0.112773E-04  0.206E-02    0.84       1.0  T
   3    -94.1067003  0.458240E-05  0.223E-02    0.85       1.0  T
   4    -94.1067219 -0.216405E-04  0.825E-03    0.84       1.5  T
   5    -94.1067210  0.974402E-06  0.604E-03    0.84       2.1  T
   6    -94.1067221 -0.114122E-05  0.229E-03    0.84       5.5  T
   7    -94.1067221 -0.154600E-07  0.154E-03    0.84       8.2  T
   8    -94.1067221 -0.164505E-08  0.746E-04    0.84      16.9  T
   9    -94.1067221 -0.694823E-08  0.282E-04    0.84      44.7  T
     SCC iter.                  ...        0 min,  0.035 sec
     gradient                   ...        0 min,  0.011 sec
 * total energy  :   -92.9207888 Eh     change       -0.3231452E-04 Eh
   gradient norm :     0.0014023 Eh/α   predicted    -0.2195429E-04 ( -32.06%)
   displ. norm   :     0.1911341 α      lambda       -0.7318408E-04
   maximum displ.:     0.1007533 α      in ANC's #1, #4, #16, ...

........................................................................
.............................. CYCLE   45 ..............................
........................................................................
   1    -94.1062261 -0.941062E+02  0.740E-02    0.85       0.0  T
   2    -94.1062334 -0.723471E-05  0.367E-02    0.85       1.0  T
   3    -94.1062333  0.698965E-07  0.258E-02    0.85       1.0  T
   4    -94.1062328  0.535024E-06  0.183E-02    0.84       1.0  T
   5    -94.1062313  0.146434E-05  0.109E-02    0.85       1.2  T
   6    -94.1062369 -0.564374E-05  0.560E-03    0.85       2.2  T
   7    -94.1062377 -0.732875E-06  0.297E-03    0.85       4.2  T
   8    -94.1062377 -0.580621E-07  0.145E-03    0.85       8.7  T
   9    -94.1062377 -0.916930E-08  0.485E-04    0.85      26.0  T
  10    -94.1062378 -0.276022E-08  0.255E-04    0.85      49.4  T
     SCC iter.                  ...        0 min,  0.038 sec
     gradient                   ...        0 min,  0.010 sec
 * total energy  :   -92.9208423 Eh     change       -0.5348666E-04 Eh
   gradient norm :     0.0033427 Eh/α   predicted    -0.3718670E-04 ( -30.47%)
   displ. norm   :     0.0832982 α      lambda       -0.4515909E-04
   maximum displ.:     0.0459449 α      in ANC's #1, #4, #3, ...

........................................................................
.............................. CYCLE   46 ..............................
........................................................................
   1    -94.1062295 -0.941062E+02  0.190E-02    0.85       0.0  T
   2    -94.1062294  0.814439E-07  0.109E-02    0.85       1.2  T
   3    -94.1062283  0.107942E-05  0.101E-02    0.85       1.2  T
   4    -94.1062295 -0.111437E-05  0.578E-03    0.85       2.2  T
   5    -94.1062302 -0.770892E-06  0.174E-03    0.85       7.2  T
   6    -94.1062303 -0.712039E-07  0.924E-04    0.85      13.6  T
   7    -94.1062303 -0.424346E-08  0.649E-04    0.85      19.4  T
     SCC iter.                  ...        0 min,  0.030 sec
     gradient                   ...        0 min,  0.011 sec
 * total energy  :   -92.9208763 Eh     change       -0.3404597E-04 Eh
   gradient norm :     0.0027319 Eh/α   predicted    -0.2273643E-04 ( -33.22%)
   displ. norm   :     0.1502401 α      lambda       -0.6800042E-04
   maximum displ.:     0.0851746 α      in ANC's #1, #4, #3, ...

........................................................................
.............................. CYCLE   47 ..............................
........................................................................
   1    -94.1070775 -0.941071E+02  0.352E-02    0.85       0.0  T
   2    -94.1070766  0.914736E-06  0.261E-02    0.85       1.0  T
   3    -94.1070771 -0.476422E-06  0.171E-02    0.85       1.0  T
   4    -94.1070765  0.587243E-06  0.109E-02    0.86       1.2  T
   5    -94.1070774 -0.868231E-06  0.704E-03    0.85       1.8  T
   6    -94.1070802 -0.285046E-05  0.204E-03    0.85       6.2  T
   7    -94.1070802 -0.202411E-07  0.137E-03    0.85       9.2  T
   8    -94.1070803 -0.255457E-07  0.694E-04    0.85      18.2  T
   9    -94.1070803 -0.317776E-08  0.214E-04    0.85      58.8  T
     SCC iter.                  ...        0 min,  0.038 sec
     gradient                   ...        0 min,  0.011 sec
 * total energy  :   -92.9209275 Eh     change       -0.5117232E-04 Eh
   gradient norm :     0.0016417 Eh/α   predicted    -0.3477286E-04 ( -32.05%)
   displ. norm   :     0.2712679 α      lambda       -0.5301602E-04
   maximum displ.:     0.1585361 α      in ANC's #1, #4, #3, ...

........................................................................
.............................. CYCLE   48 ..............................
........................................................................
   1    -94.1076106 -0.941076E+02  0.550E-02    0.86       0.0  T
   2    -94.1076024  0.810618E-05  0.447E-02    0.87       1.0  T
   3    -94.1076067 -0.422483E-05  0.289E-02    0.85       1.0  T
   4    -94.1076060  0.644421E-06  0.177E-02    0.87       1.0  T
   5    -94.1076127 -0.665900E-05  0.993E-03    0.85       1.3  T
   6    -94.1076177 -0.501647E-05  0.295E-03    0.86       4.3  T
   7    -94.1076178 -0.553865E-07  0.176E-03    0.86       7.1  T
   8    -94.1076178 -0.395724E-08  0.945E-04    0.86      13.3  T
   9    -94.1076178 -0.240836E-07  0.334E-04    0.86      37.7  T
     SCC iter.                  ...        0 min,  0.038 sec
     gradient                   ...        0 min,  0.011 sec
 * total energy  :   -92.9209822 Eh     change       -0.5464794E-04 Eh
   gradient norm :     0.0022658 Eh/α   predicted    -0.2737955E-04 ( -49.90%)
   displ. norm   :     0.1384679 α      lambda       -0.3780782E-04
   maximum displ.:     0.0826776 α      in ANC's #1, #4, #2, ...

........................................................................
.............................. CYCLE   49 ..............................
........................................................................
   1    -94.1075583 -0.941076E+02  0.215E-02    0.86       0.0  T
   2    -94.1075574  0.833372E-06  0.182E-02    0.86       1.0  T
   3    -94.1075581 -0.636748E-06  0.110E-02    0.86       1.1  T
   4    -94.1075560  0.204525E-05  0.739E-03    0.86       1.7  T
   5    -94.1075589 -0.290264E-05  0.142E-03    0.86       8.9  T
   6    -94.1075590 -0.691825E-07  0.605E-04    0.86      20.8  T
   7    -94.1075590 -0.111748E-08  0.401E-04    0.86      31.4  T
     SCC iter.                  ...        0 min,  0.030 sec
     gradient                   ...        0 min,  0.011 sec
 * total energy  :   -92.9210167 Eh     change       -0.3459767E-04 Eh
   gradient norm :     0.0021325 Eh/α   predicted    -0.1926665E-04 ( -44.31%)
   displ. norm   :     0.2668632 α      lambda       -0.8005602E-04
   maximum displ.:     0.1575955 α      in ANC's #1, #4, #2, ...

........................................................................
.............................. CYCLE   50 ..............................
........................................................................
   1    -94.1072889 -0.941073E+02  0.386E-02    0.86       0.0  T
   2    -94.1072884  0.443703E-06  0.285E-02    0.87       1.0  T
   3    -94.1072884  0.616054E-07  0.206E-02    0.86       1.0  T
   4    -94.1072859  0.243019E-05  0.957E-03    0.87       1.3  T
   5    -94.1072902 -0.423286E-05  0.242E-03    0.86       5.2  T
[...]
 molecular gradient             ...        0 min,  0.011 sec ( 29.673%)
 printout                       ...        0 min,  0.001 sec (  2.279%)

         :::::::::::::::::::::::::::::::::::::::::::::::::::::
         ::                     SUMMARY                     ::
         :::::::::::::::::::::::::::::::::::::::::::::::::::::
         :: total energy             -92.922124480461 Eh    ::
         :: total w/o Gsasa/hb       -92.886742998755 Eh    ::
         :: gradient norm              0.000055951840 Eh/a0 ::
         :: HOMO-LUMO gap              0.826156821186 eV    ::
         ::.................................................::
         :: SCC energy               -94.108340445494 Eh    ::
         :: -> isotropic ES            0.077907963064 Eh    ::
         :: -> anisotropic ES          0.014527026372 Eh    ::
         :: -> anisotropic XC          0.018278893307 Eh    ::
         :: -> dispersion             -0.092138286478 Eh    ::
         :: -> Gsolv                  -0.038723706286 Eh    ::
         ::    -> Gelec               -0.003342224580 Eh    ::
         ::    -> Gsasa               -0.039530179067 Eh    ::
         ::    -> Ghb                  0.000000000000 Eh    ::
         ::    -> Gshift               0.004148697361 Eh    ::
         :: repulsion energy           1.183181899573 Eh    ::
         :: add. restraining           0.000000000000 Eh    ::
         :: total charge               0.000000000055 e     ::
         :::::::::::::::::::::::::::::::::::::::::::::::::::::

           -------------------------------------------------
          |                Property Printout                |
           -------------------------------------------------

    * Orbital Energies and Occupations

         #    Occupation            Energy/Eh            Energy/eV
      -------------------------------------------------------------
         1        2.0000           -0.7214068             -19.6305
       ...           ...                  ...                  ...
        74        2.0000           -0.4085261             -11.1166
        75        2.0000           -0.4026352             -10.9563
        76        2.0000           -0.4004493             -10.8968
        77        2.0000           -0.3915635             -10.6550
        78        2.0000           -0.3794449             -10.3252
        79        2.0000           -0.3725212             -10.1368
        80        2.0000           -0.3660122              -9.9597
        81        2.0000           -0.3644336              -9.9167
        82        2.0000           -0.2903004              -7.8995
        83        2.0000           -0.2844846              -7.7412
        84        2.0000           -0.2767245              -7.5301
        85        1.9977           -0.2723027              -7.4097
        86        1.0023           -0.2607599              -7.0956 (HOMO)
        87        0.0000           -0.2303992              -6.2695 (LUMO)
        88                         -0.2238176              -6.0904
        89                         -0.2083954              -5.6707
        90                         -0.2028711              -5.5204
        91                         -0.1749947              -4.7618
        92                         -0.1670770              -4.5464
        93                         -0.1446357              -3.9357
        94                         -0.1176041              -3.2002
        95                         -0.0886250              -2.4116
        96                         -0.0687165              -1.8699
        97                         -0.0568581              -1.5472
       ...                                ...                  ...
       171                          2.2962778              62.4849
      -------------------------------------------------------------
                  HL-Gap            0.0303607 Eh            0.8262 eV
             Fermi-level           -0.2560534 Eh           -6.9676 eV

     #   Z          covCN         q      C6AA      α(0)
     1   6 C        3.643     0.030    20.416     6.496
     2   8 O        1.706    -0.259    18.293     5.775
     3   6 C        2.903     0.139    24.969     8.193
     4   6 C        2.915    -0.084    30.101     8.997
     5   6 C        2.924    -0.035    28.877     8.812
     6   6 C        2.913    -0.073    29.819     8.954
     7   6 C        3.067     0.146    24.771     8.161
     8   6 C        2.922    -0.055    29.355     8.885
     9  15 P        4.436     0.022   159.242    22.668
    10   6 C        3.847     0.019    20.221     6.396
    11   6 C        3.792    -0.108    22.570     6.766
    12   6 C        3.873    -0.116    22.672     6.770
    13   6 C        3.848    -0.112    22.595     6.761
    14  77 Ir       2.258    -0.080   345.192    35.604
    15  15 P        4.415    -0.019   161.055    22.797
    16   6 C        3.843     0.012    20.348     6.417
    17   6 C        3.864    -0.101    22.374     6.726
    18   6 C        3.776    -0.102    22.478     6.755
    19   6 C        3.842    -0.109    22.547     6.755
    20   6 C        3.069    -0.041    28.942     8.821
    21   6 C        2.916     0.133    25.093     8.214
    22   8 O        1.850    -0.217    17.582     5.663
    23   6 C        3.640     0.039    20.281     6.476
    24   6 C        2.915    -0.085    30.124     9.000
    25   6 C        2.925    -0.044    29.082     8.844
    26   6 C        2.912    -0.072    29.807     8.952
    27   6 C        3.070     0.139    24.895     8.181
    28   8 O        1.728    -0.284    18.704     5.839
    29   6 C        3.736     0.084    19.265     6.264
    30   6 C        3.745     0.073    19.423     6.287
    31   8 O        1.721    -0.278    18.615     5.825
    32   1 H        0.925     0.070     2.089     2.260
    33   1 H        0.924     0.048     2.346     2.395
    34   1 H        0.924     0.050     2.325     2.385
    35   1 H        0.926     0.044     2.395     2.420
    36   1 H        0.926     0.044     2.396     2.421
    37   1 H        0.926     0.045     2.377     2.411
    38   1 H        0.925     0.040     2.452     2.449
    39   1 H        0.925     0.047     2.363     2.404
    40   1 H        0.925     0.043     2.408     2.427
    41   1 H        0.925     0.044     2.401     2.423
    42   1 H        0.925     0.050     2.320     2.382
    43   1 H        0.925     0.056     2.251     2.346
    44   1 H        0.925     0.037     2.485     2.465
    45   1 H        0.924     0.047     2.351     2.398
    46   1 H        0.925     0.048     2.341     2.393
    47   1 H        0.925     0.037     2.485     2.465
    48   1 H        0.925     0.035     2.519     2.482
    49   1 H        0.924     0.042     2.418     2.432
    50   1 H        0.925     0.039     2.463     2.454
    51   1 H        0.925     0.033     2.543     2.494
    52   1 H        0.924     0.039     2.467     2.456
    53   1 H        0.925     0.042     2.419     2.432
    54   1 H        0.925     0.045     2.388     2.417
    55   1 H        0.925     0.037     2.487     2.466
    56   1 H        0.924     0.043     2.406     2.425
    57   1 H        0.925     0.064     2.150     2.293
    58   1 H        0.924     0.045     2.388     2.417
    59   1 H        0.926     0.036     2.504     2.474
    60   1 H        0.926     0.037     2.483     2.464
    61   1 H        0.926     0.041     2.430     2.438
    62   1 H        0.924     0.055     2.263     2.352
    63   1 H        0.924     0.054     2.272     2.357

 Mol. C6AA /au·bohr⁶  :      52111.832996
 Mol. C8AA /au·bohr⁸  :    1599848.031043
 Mol. α(0) /au        :        364.353664


Wiberg/Mayer (AO) data.
largest (>0.10) Wiberg bond orders for each atom

 ---------------------------------------------------------------------------
     #   Z sym  total        # sym  WBO       # sym  WBO       # sym  WBO
 ---------------------------------------------------------------------------
     1   6 C    3.939 --    32 H    0.979    34 H    0.977    33 H    0.976
                             2 O    0.976
     2   8 O    2.262 --     3 C    1.065     1 C    0.976
     3   6 C    3.936 --     4 C    1.377     8 C    1.315     2 O    1.065
     4   6 C    3.977 --     5 C    1.420     3 C    1.377    35 H    0.965
     5   6 C    3.968 --     6 C    1.449     4 C    1.420    36 H    0.971
     6   6 C    3.977 --     5 C    1.449     7 C    1.353    37 H    0.967
     7   6 C    3.933 --     6 C    1.353     8 C    1.322    31 O    1.070
     8   6 C    3.969 --     7 C    1.322     3 C    1.315     9 P    0.994
     9  15 P    4.468 --    14 Ir   1.292     8 C    0.994    30 C    0.891
                            10 C    0.889
    10   6 C    3.977 --    11 C    0.995    13 C    0.993    12 C    0.992
                             9 P    0.889
    11   6 C    3.994 --    10 C    0.995    40 H    0.979    39 H    0.979
                            38 H    0.977
    12   6 C    3.992 --    10 C    0.992    41 H    0.980    43 H    0.976
                            42 H    0.971
    13   6 C    3.994 --    10 C    0.993    46 H    0.980    44 H    0.977
                            45 H    0.968
    14  77 Ir   2.945 --     9 P    1.292    15 P    0.876    22 O    0.182
                            20 C    0.101
    15  15 P    4.043 --    20 C    0.997    29 C    0.930    14 Ir   0.876
                            16 C    0.856
    16   6 C    3.943 --    18 C    0.997    19 C    0.996    17 C    0.995
                            15 P    0.856
    17   6 C    3.996 --    16 C    0.995    47 H    0.980    48 H    0.980
                            49 H    0.975
    18   6 C    3.992 --    16 C    0.997    50 H    0.981    51 H    0.980
                            52 H    0.978
    19   6 C    3.995 --    16 C    0.996    53 H    0.980    55 H    0.978
                            54 H    0.976
    20   6 C    3.974 --    21 C    1.309    27 C    1.303    15 P    0.997
                            14 Ir   0.101
    21   6 C    3.928 --    24 C    1.405    20 C    1.309    22 O    1.013
    22   8 O    2.355 --    21 C    1.013    23 C    0.975    14 Ir   0.182
    23   6 C    3.941 --    57 H    0.979    56 H    0.978    58 H    0.977
                            22 O    0.975
    24   6 C    3.979 --    21 C    1.405    25 C    1.397    59 H    0.966
    25   6 C    3.985 --    26 C    1.444    24 C    1.397    60 H    0.971
    26   6 C    3.983 --    25 C    1.444    27 C    1.365    61 H    0.967
    27   6 C    3.932 --    26 C    1.365    20 C    1.303    28 O    1.059
    28   8 O    2.230 --    27 C    1.059    29 C    0.954
    29   6 C    3.921 --    30 C    0.961    28 O    0.954    62 H    0.941
                            15 P    0.930
    30   6 C    3.919 --    29 C    0.961    31 O    0.956    63 H    0.934
                             9 P    0.891
    31   8 O    2.242 --     7 C    1.070    30 C    0.956
    32   1 H    0.995 --     1 C    0.979
    33   1 H    0.997 --     1 C    0.976
    34   1 H    0.997 --     1 C    0.977
    35   1 H    0.997 --     4 C    0.965
    36   1 H    0.997 --     5 C    0.971
    37   1 H    0.997 --     6 C    0.967
    38   1 H    0.998 --    11 C    0.977
    39   1 H    0.995 --    11 C    0.979
    40   1 H    0.998 --    11 C    0.979
    41   1 H    0.997 --    12 C    0.980
    42   1 H    0.997 --    12 C    0.971
    43   1 H    0.997 --    12 C    0.976
    44   1 H    0.999 --    13 C    0.977
    45   1 H    0.998 --    13 C    0.968
    46   1 H    0.997 --    13 C    0.980
    47   1 H    0.997 --    17 C    0.980
    48   1 H    0.999 --    17 C    0.980
    49   1 H    0.998 --    17 C    0.975
    50   1 H    0.998 --    18 C    0.981
    51   1 H    0.999 --    18 C    0.980
    52   1 H    0.994 --    18 C    0.978
    53   1 H    0.996 --    19 C    0.980
    54   1 H    0.998 --    19 C    0.976
    55   1 H    0.998 --    19 C    0.978
    56   1 H    0.998 --    23 C    0.978
    57   1 H    0.995 --    23 C    0.979
    58   1 H    0.998 --    23 C    0.977
    59   1 H    0.998 --    24 C    0.966
    60   1 H    0.998 --    25 C    0.971
    61   1 H    0.998 --    26 C    0.967
    62   1 H    0.996 --    29 C    0.941
    63   1 H    0.996 --    30 C    0.934
 ---------------------------------------------------------------------------

Topologies differ in total number of bonds
Writing topology from bond orders to xtbtopo.mol

molecular dipole:
                 x           y           z       tot (Debye)
 q only:       -0.541       0.480      -1.480
   full:       -1.192      -0.159      -1.872       5.655
molecular quadrupole (traceless):
                xx          xy          yy          xz          yz          zz
 q only:        1.253       4.132       9.002      -2.944      -1.400     -10.256
  q+dip:        2.512       7.355       6.615      -0.917      -0.295      -9.127
   full:        1.080       6.811       8.768      -0.760      -0.010      -9.848

           -------------------------------------------------
          |                Geometry Summary                 |
           -------------------------------------------------

      molecular mass/u    :      638.6729609
   center of mass at/Å    :        0.1220625      -0.0355923       0.5251695
  moments of inertia/u·Å² :        0.2833149E+04   0.4949675E+04   0.5332129E+04
rotational constants/cm⁻¹ :        0.5950140E-02   0.3405806E-02   0.3161520E-02

 * 65 selected distances

     #   Z          #   Z                                           value/Å
     1   6 C        2   8 O                                       1.4110470
     2   8 O        3   6 C                                       1.3593203
     3   6 C        4   6 C                                       1.3895876
     4   6 C        5   6 C                                       1.3886687
     5   6 C        6   6 C                                       1.3830164
     6   6 C        7   6 C                                       1.3891431
     3   6 C        8   6 C                                       1.3950291
     7   6 C        8   6 C                                       1.3921020
     8   6 C        9  15 P                                       1.8095967
     9  15 P       10   6 C                                       1.9000876
    10   6 C       11   6 C                                       1.5254450
    10   6 C       12   6 C                                       1.5280137
    10   6 C       13   6 C                                       1.5290282
     9  15 P       14  77 Ir                                      2.2109159
    14  77 Ir      15  15 P                                       2.3128251 (max)
    16   6 C       17   6 C                                       1.5287132
    16   6 C       18   6 C                                       1.5246265
    16   6 C       19   6 C                                       1.5281339
    15  15 P       20   6 C                                       1.8181323
    20   6 C       21   6 C                                       1.3953298
    21   6 C       22   8 O                                       1.3819889
    22   8 O       23   6 C                                       1.4097553
    21   6 C       24   6 C                                       1.3836932
    24   6 C       25   6 C                                       1.3934322
    25   6 C       26   6 C                                       1.3849548
    20   6 C       27   6 C                                       1.3942433
    26   6 C       27   6 C                                       1.3869672
    27   6 C       28   8 O                                       1.3592396
    15  15 P       29   6 C                                       1.8937820
    28   8 O       29   6 C                                       1.4262620
    29   6 C       30   6 C                                       1.5466086
     7   6 C       31   8 O                                       1.3530846
    30   6 C       31   8 O                                       1.4233600
     1   6 C       32   1 H                                       1.0889285
     1   6 C       33   1 H                                       1.0947474
     1   6 C       34   1 H                                       1.0939305
     4   6 C       35   1 H                                       1.0782677
     5   6 C       36   1 H                                       1.0799418
     6   6 C       37   1 H                                       1.0781636 (min)
    11   6 C       38   1 H                                       1.0880533
    11   6 C       39   1 H                                       1.0897045
    11   6 C       40   1 H                                       1.0885191
    12   6 C       41   1 H                                       1.0891234
    12   6 C       42   1 H                                       1.0897686
    12   6 C       43   1 H                                       1.0866198
    13   6 C       44   1 H                                       1.0880126
    13   6 C       45   1 H                                       1.0911829
    13   6 C       46   1 H                                       1.0890068
    17   6 C       47   1 H                                       1.0895368
    17   6 C       48   1 H                                       1.0894107
    17   6 C       49   1 H                                       1.0904173
    18   6 C       50   1 H                                       1.0875319
    18   6 C       51   1 H                                       1.0890795
    18   6 C       52   1 H                                       1.0906369
    19   6 C       53   1 H                                       1.0895596
    19   6 C       54   1 H                                       1.0901483
    19   6 C       55   1 H                                       1.0889267
    23   6 C       56   1 H                                       1.0942434
    23   6 C       57   1 H                                       1.0898429
    23   6 C       58   1 H                                       1.0953411
    24   6 C       59   1 H                                       1.0786808
    25   6 C       60   1 H                                       1.0794656
    26   6 C       61   1 H                                       1.0783573
    29   6 C       62   1 H                                       1.0968073
    30   6 C       63   1 H                                       1.0990349

 * 5 distinct bonds (by element types)

   Z      Z             #   av. dist./Å        max./Å        min./Å
   1 H    6 C          32     1.0884685     1.0990349     1.0781636
   6 C    6 C          19     1.4414072     1.5466086     1.3830164
   6 C    8 O           8     1.3905072     1.4262620     1.3530846
   6 C   15 P           4     1.8553997     1.9000876     1.8095967
  15 P   77 Ir          2     2.2618705     2.3128251     2.2109159


optimized geometry written to: xtbopt.xyz


           -------------------------------------------------
          | TOTAL ENERGY              -92.922124480461 Eh   |
          | GRADIENT NORM               0.000055951840 Eh/α |
          | HOMO-LUMO GAP               0.826156821186 eV   |
           -------------------------------------------------

------------------------------------------------------------------------
 * finished run on 2022/10/30 at 17:45:17.665     
------------------------------------------------------------------------
 total:
 * wall-time:     0 d,  0 h,  0 min,  7.643 sec
 *  cpu-time:     0 d,  0 h,  0 min, 58.945 sec
 * ratio c/w:     7.712 speedup
 SCF:
 * wall-time:     0 d,  0 h,  0 min,  0.187 sec
 *  cpu-time:     0 d,  0 h,  0 min,  1.238 sec
 * ratio c/w:     6.639 speedup
 ANC optimizer:
 * wall-time:     0 d,  0 h,  0 min,  7.048 sec
 *  cpu-time:     0 d,  0 h,  0 min, 55.957 sec
 * ratio c/w:     7.939 speedup

