      -----------------------------------------------------------      
     |                   =====================                   |     
     |                           x T B                           |     
     |                   =====================                   |     
     |                         S. Grimme                         |     
     |          Mulliken Center for Theoretical Chemistry        |     
     |                    University of Bonn                     |     
      -----------------------------------------------------------      

   * xtb version 6.5.1 (b24c23e) compiled by 'conda@728c89f4b128' on 2022-07-12

   xtb is free software: you can redistribute it and/or modify it under
   the terms of the GNU Lesser General Public License as published by
   the Free Software Foundation, either version 3 of the License, or
   (at your option) any later version.
   
   xtb is distributed in the hope that it will be useful,
   but WITHOUT ANY WARRANTY; without even the implied warranty of
   MERCHANTABILITY or FITNESS FOR A PARTICULAR PURPOSE.  See the
   GNU Lesser General Public License for more details.
   
   Cite this work as:
   * C. Bannwarth, E. Caldeweyher, S. Ehlert, A. Hansen, P. Pracht,
     J. Seibert, S. Spicher, S. Grimme, WIREs Comput. Mol. Sci., 2020, 11,
     e01493. DOI: 10.1002/wcms.1493
   
   for GFN2-xTB:
   * C. Bannwarth, S. Ehlert and S. Grimme., J. Chem. Theory Comput., 2019,
     15, 1652-1671. DOI: 10.1021/acs.jctc.8b01176
   for GFN1-xTB:
   * S. Grimme, C. Bannwarth, P. Shushkov, J. Chem. Theory Comput., 2017,
     13, 1989-2009. DOI: 10.1021/acs.jctc.7b00118
   for GFN0-xTB:
   * P. Pracht, E. Caldeweyher, S. Ehlert, S. Grimme, ChemRxiv, 2019, preprint.
     DOI: 10.26434/chemrxiv.8326202.v1
   for GFN-FF:
   * S. Spicher and S. Grimme, Angew. Chem. Int. Ed., 2020, 59, 15665-15673.
     DOI: 10.1002/anie.202004239
   
   for ALPB and GBSA implicit solvation:
   * S. Ehlert, M. Stahn, S. Spicher, S. Grimme, J. Chem. Theory Comput.,
     2021, 17, 4250-4261. DOI: 10.1021/acs.jctc.1c00471
   
   for DFT-D4:
   * E. Caldeweyher, C. Bannwarth and S. Grimme, J. Chem. Phys., 2017,
     147, 034112. DOI: 10.1063/1.4993215
   * E. Caldeweyher, S. Ehlert, A. Hansen, H. Neugebauer, S. Spicher,
     C. Bannwarth and S. Grimme, J. Chem. Phys., 2019, 150, 154122.
     DOI: 10.1063/1.5090222
   * E. Caldeweyher, J.-M. Mewes, S. Ehlert and S. Grimme, Phys. Chem. Chem. Phys.
     2020, 22, 8499-8512. DOI: 10.1039/D0CP00502A
   
   for sTDA-xTB:
   * S. Grimme and C. Bannwarth, J. Chem. Phys., 2016, 145, 054103.
     DOI: 10.1063/1.4959605
   
   in the mass-spec context:
   * V. Asgeirsson, C. Bauer and S. Grimme, Chem. Sci., 2017, 8, 4879.
     DOI: 10.1039/c7sc00601b
   * J. Koopman and S. Grimme, ACS Omega 2019, 4, 12, 15120-15133.
     DOI: 10.1021/acsomega.9b02011
   
   for metadynamics refer to:
   * S. Grimme, J. Chem. Theory Comput., 2019, 155, 2847-2862
     DOI: 10.1021/acs.jctc.9b00143
   
   for SPH calculations refer to:
   * S. Spicher and S. Grimme, J. Chem. Theory Comput., 2021, 17, 1701-1714
     DOI: 10.1021/acs.jctc.0c01306
   
   with help from (in alphabetical order)
   P. Atkinson, C. Bannwarth, F. Bohle, G. Brandenburg, E. Caldeweyher
   M. Checinski, S. Dohm, S. Ehlert, S. Ehrlich, I. Gerasimov, C. Hölzer
   A. Katbashev, J. Koopman, C. Lavigne, S. Lehtola, F. März, M. Müller,
   F. Musil, H. Neugebauer, J. Pisarek, C. Plett, P. Pracht, F. Pultar,
   J. Seibert, P. Shushkov, S. Spicher, M. Stahn, M. Steiner, T. Strunk,
   J. Stückrath, T. Rose, and J. Unsleber
   
 * started run on 2022/11/14 at 22:11:14.334     

           -------------------------------------------------
          |                Calculation Setup                |
           -------------------------------------------------

          program call               : xtb 3_5_dimethyl_phenyl.xyz --gfn2 --chrg 0 --uhf 1 --alpb ch2cl2 --opt 1
          coordinate file            : 3_5_dimethyl_phenyl.xyz
          omp threads                :                     8

   ID    Z sym.   atoms
    1    6 C      1-6, 10, 14
    2    1 H      7-9, 11-13, 15-17

           -------------------------------------------------
          |                 G F N 2 - x T B                 |
           -------------------------------------------------

        Reference                      10.1021/acs.jctc.8b01176
      * Hamiltonian:
        H0-scaling (s, p, d)           1.850000    2.230000    2.230000
        zeta-weighting                 0.500000
      * Dispersion:
        s8                             2.700000
        a1                             0.520000
        a2                             5.000000
        s9                             5.000000
      * Repulsion:
        kExp                           1.500000    1.000000
        rExp                           1.000000
      * Coulomb:
        alpha                          2.000000
        third order                    shell-resolved
        anisotropic                    true
        a3                             3.000000
        a5                             4.000000
        cn-shift                       1.200000
        cn-exp                         4.000000
        max-rad                        5.000000

      * Solvation model:               ALPB
        Solvent                        ch2cl2
        Parameter file                 internal GFN2-xTB/ALPB
        Dielectric constant                8.9300E+00
        Reference state                gsolv [1 M gas/solution]
        Free energy shift                  4.1487E-03 Eh       2.6033E+00 kcal/mol
        Temperature                        2.9815E+02 K
        Density                            1.3300E+00 kg/L
        Solvent mass                       8.4930E+01 g/mol
        Interaction kernel             P16
        Born radius scaling (c1)           1.5691E+00
        Born radii integrator          GBOBC
        Born offset                        0.0000E+00 a0       0.0000E+00 AA
        H-bond correction              false
        Ion screening                  false
        Surface tension                    1.0000E-05 Eh       1.5569E+01 dyn/cm
        Grid points                               230 per atom

          ...................................................
          :                      SETUP                      :
          :.................................................:
          :  # basis functions                  41          :
          :  # atomic orbitals                  41          :
          :  # shells                           25          :
          :  # electrons                        41          :
          :  max. iterations                   250          :
          :  Hamiltonian                  GFN2-xTB          :
          :  restarted?                      false          :
          :  GBSA solvation                   true          :
          :  PC potential                    false          :
          :  electronic temp.          300.0000000     K    :
          :  accuracy                    1.0000000          :
          :  -> integral cutoff          0.2500000E+02      :
          :  -> integral neglect         0.1000000E-07      :
          :  -> SCF convergence          0.1000000E-05 Eh   :
          :  -> wf. convergence          0.1000000E-03 e    :
          :  Broyden damping             0.4000000          :
          ...................................................

 iter      E             dE          RMSdq      gap      omega  full diag
   1    -21.9829281 -0.219829E+02  0.418E+00    3.05       0.0  T
   2    -21.9982091 -0.152810E-01  0.252E+00    2.84       1.0  T
   3    -21.9901842  0.802484E-02  0.102E+00    3.14       1.0  T
   4    -22.0014499 -0.112657E-01  0.243E-01    2.93       1.0  T
   5    -22.0018819 -0.432031E-03  0.606E-02    2.99       1.0  T
   6    -22.0018947 -0.127773E-04  0.351E-02    2.97       1.0  T
   7    -22.0018971 -0.238969E-05  0.181E-02    2.98       1.3  T
   8    -22.0019002 -0.312307E-05  0.214E-03    2.98      11.4  T
   9    -22.0019002 -0.210577E-07  0.114E-03    2.98      21.3  T
  10    -22.0019002  0.200975E-08  0.601E-04    2.98      40.3  T
  11    -22.0019002 -0.409665E-08  0.462E-05    2.98     524.9  T

   *** convergence criteria satisfied after 11 iterations ***

         #    Occupation            Energy/Eh            Energy/eV
      -------------------------------------------------------------
         1        2.0000           -0.6388381             -17.3837
       ...           ...                  ...                  ...
        15        2.0000           -0.4505804             -12.2609
        16        2.0000           -0.4493240             -12.2267
        17        2.0000           -0.4482000             -12.1961
        18        2.0000           -0.4192050             -11.4071
        19        2.0000           -0.3898721             -10.6090
        20        2.0000           -0.3881737             -10.5627
        21        1.0000           -0.3263189              -8.8796 (HOMO)
        22                         -0.2169114              -5.9025 (LUMO)
        23                         -0.2156590              -5.8684
        24                         -0.0916064              -2.4927
        25                          0.0661769               1.8008
        26                          0.0983375               2.6759
       ...                                ...                  ...
        41                          0.6187807              16.8379
      -------------------------------------------------------------
                  HL-Gap            0.1094075 Eh            2.9771 eV
             Fermi-level           -0.3144307 Eh           -8.5561 eV

 SCC (total)                   0 d,  0 h,  0 min,  2.444 sec
 SCC setup                      ...        0 min,  0.015 sec (  0.627%)
 Dispersion                     ...        0 min,  0.002 sec (  0.069%)
 classical contributions        ...        0 min,  0.006 sec (  0.246%)
 integral evaluation            ...        0 min,  0.040 sec (  1.631%)
 iterations                     ...        0 min,  1.916 sec ( 78.382%)
 molecular gradient             ...        0 min,  0.465 sec ( 19.031%)
 printout                       ...        0 min,  0.000 sec (  0.011%)

         :::::::::::::::::::::::::::::::::::::::::::::::::::::
         ::                     SUMMARY                     ::
         :::::::::::::::::::::::::::::::::::::::::::::::::::::
         :: total energy             -21.616519394758 Eh    ::
         :: total w/o Gsasa/hb       -21.606974300677 Eh    ::
         :: gradient norm              0.072720124288 Eh/a0 ::
         :: HOMO-LUMO gap              2.977129507286 eV    ::
         ::.................................................::
         :: SCC energy               -22.001900245655 Eh    ::
         :: -> isotropic ES            0.003351021797 Eh    ::
         :: -> anisotropic ES          0.004080334104 Eh    ::
         :: -> anisotropic XC          0.014256679457 Eh    ::
         :: -> dispersion             -0.012406575650 Eh    ::
         :: -> Gsolv                  -0.010074016202 Eh    ::
         ::    -> Gelec               -0.000528922121 Eh    ::
         ::    -> Gsasa               -0.013693791442 Eh    ::
         ::    -> Ghb                  0.000000000000 Eh    ::
         ::    -> Gshift               0.004148697361 Eh    ::
         :: repulsion energy           0.385356235543 Eh    ::
         :: add. restraining           0.000000000000 Eh    ::
         :: total charge               0.000000000000 e     ::
         :::::::::::::::::::::::::::::::::::::::::::::::::::::

      ----------------------------------------------------------- 
     |                   =====================                   |
     |                        A N C O P T                        |
     |                   =====================                   |
     |               Approximate Normal Coordinate               |
     |                Rational Function Optimizer                |
      ----------------------------------------------------------- 

          ...................................................
          :                      SETUP                      :
          :.................................................:
          :   optimization level             tight          :
          :   max. optcycles                   200          :
          :   ANC micro-cycles                  20          :
          :   degrees of freedom                45          :
          :.................................................:
          :   RF solver                   davidson          :
          :   write xtbopt.log                true          :
          :   linear?                        false          :
          :   energy convergence         0.1000000E-05 Eh   :
          :   grad. convergence          0.8000000E-03 Eh/α :
          :   maximium RF displ.         1.0000000          :
          :   Hlow (freq-cutoff)         0.1000000E-01      :
          :   Hmax (freq-cutoff)         5.0000000          :
          :   S6 in model hess.         20.0000000          :
          ...................................................

generating ANC from model Hessian ...
Using Lindh-Hessian (1995)
 Shifting diagonal of input Hessian by    6.0615617131578019E-003
 Lowest  eigenvalues of input Hessian
    0.000000    0.000000    0.000000    0.000000    0.000000    0.000000
    0.010000    0.010849    0.015030    0.015599    0.015993    0.025906
    0.028130    0.035653    0.039752    0.046706    0.051371    0.073081
 Highest eigenvalues
    1.257407    1.453201    1.453696    1.811182    1.850951    1.876929


........................................................................
.............................. CYCLE    1 ..............................
........................................................................
   1    -22.0019002 -0.220019E+02  0.274E-05    2.98       0.0  T
   2    -22.0019002 -0.339995E-11  0.206E-05    2.98    1179.3  T
   3    -22.0019002 -0.352429E-11  0.104E-05    2.98    2336.7  T
     SCC iter.                  ...        0 min,  0.772 sec
     gradient                   ...        0 min,  0.384 sec
 * total energy  :   -21.6165194 Eh     change       -0.1262990E-10 Eh
   gradient norm :     0.0726410 Eh/α   predicted     0.0000000E+00 (-100.00%)
   displ. norm   :     0.2129448 α      lambda       -0.8150119E-02
   maximum displ.:     0.1401370 α      in ANC's #7, #26, #10, ...

........................................................................
.............................. CYCLE    2 ..............................
........................................................................
   1    -22.0169992 -0.220170E+02  0.216E-01    2.95       0.0  T
   2    -22.0170333 -0.340947E-04  0.129E-01    2.92       1.0  T
   3    -22.0169989  0.343198E-04  0.598E-02    2.96       1.0  T
   4    -22.0170459 -0.469597E-04  0.914E-03    2.93       2.7  T
   5    -22.0170467 -0.841484E-06  0.389E-03    2.94       6.2  T
   6    -22.0170468 -0.326186E-07  0.225E-03    2.93      10.8  T
   7    -22.0170468 -0.268481E-07  0.634E-04    2.93      38.2  T
   8    -22.0170468 -0.128309E-08  0.235E-04    2.93     103.3  T
     SCC iter.                  ...        0 min,  0.915 sec
     gradient                   ...        0 min,  0.098 sec
 * total energy  :   -21.6205572 Eh     change       -0.4037779E-02 Eh
   gradient norm :     0.0474386 Eh/α   predicted    -0.4259844E-02 (   5.50%)
   displ. norm   :     0.1302051 α      lambda       -0.4107405E-02
   maximum displ.:     0.0718095 α      in ANC's #24, #26, #31, ...

........................................................................
.............................. CYCLE    3 ..............................
........................................................................
   1    -22.0296659 -0.220297E+02  0.231E-01    2.73       0.0  T
   2    -22.0297025 -0.366160E-04  0.139E-01    2.70       1.0  T
   3    -22.0296761  0.264214E-04  0.638E-02    2.74       1.0  T
   4    -22.0297155 -0.394176E-04  0.841E-03    2.72       2.9  T
   5    -22.0297160 -0.546645E-06  0.384E-03    2.72       6.3  T
   6    -22.0297161 -0.127285E-07  0.227E-03    2.72      10.7  T
   7    -22.0297161 -0.231293E-07  0.260E-04    2.72      93.3  T
   8    -22.0297161  0.604672E-11  0.128E-04    2.72     190.0  T
     SCC iter.                  ...        0 min,  0.895 sec
     gradient                   ...        0 min,  0.173 sec
 * total energy  :   -21.6222783 Eh     change       -0.1721089E-02 Eh
   gradient norm :     0.0203254 Eh/α   predicted    -0.2088518E-02 (  21.35%)
   displ. norm   :     0.0645459 α      lambda       -0.7702904E-03
   maximum displ.:     0.0358870 α      in ANC's #10, #26, #7, ...

........................................................................
.............................. CYCLE    4 ..............................
........................................................................
   1    -22.0249458 -0.220249E+02  0.718E-02    2.69       0.0  T
   2    -22.0249475 -0.177581E-05  0.432E-02    2.70       1.0  T
   3    -22.0249442  0.330075E-05  0.156E-02    2.69       1.6  T
   4    -22.0249483 -0.404423E-05  0.196E-03    2.70      12.4  T
   5    -22.0249483 -0.236406E-07  0.987E-04    2.70      24.6  T
   6    -22.0249483 -0.191355E-08  0.431E-04    2.70      56.3  T
     SCC iter.                  ...        0 min,  0.634 sec
     gradient                   ...        0 min,  0.019 sec
 * total energy  :   -21.6228257 Eh     change       -0.5474406E-03 Eh
   gradient norm :     0.0106012 Eh/α   predicted    -0.3867506E-03 ( -29.35%)
   displ. norm   :     0.0705322 α      lambda       -0.3609055E-03
   maximum displ.:     0.0406752 α      in ANC's #7, #10, #5, ...

........................................................................
.............................. CYCLE    5 ..............................
........................................................................
   1    -22.0229786 -0.220230E+02  0.726E-02    2.64       0.0  T
   2    -22.0229795 -0.889666E-06  0.436E-02    2.65       1.0  T
   3    -22.0229777  0.174751E-05  0.101E-02    2.64       2.4  T
   4    -22.0229798 -0.206860E-05  0.187E-03    2.65      13.0  T
   5    -22.0229798 -0.205896E-07  0.879E-04    2.64      27.6  T
   6    -22.0229798 -0.732761E-09  0.250E-04    2.64      97.0  T
     SCC iter.                  ...        0 min,  0.477 sec
     gradient                   ...        0 min,  0.049 sec
 * total energy  :   -21.6230285 Eh     change       -0.2027559E-03 Eh
   gradient norm :     0.0026031 Eh/α   predicted    -0.1813504E-03 ( -10.56%)
   displ. norm   :     0.0229493 α      lambda       -0.2335985E-04
   maximum displ.:     0.0165015 α      in ANC's #7, #5, #11, ...

........................................................................
.............................. CYCLE    6 ..............................
........................................................................
   1    -22.0234192 -0.220234E+02  0.170E-02    2.63       0.0  T
   2    -22.0234192 -0.337746E-07  0.101E-02    2.63       2.4  T
   3    -22.0234191  0.429628E-07  0.190E-03    2.63      12.8  T
   4    -22.0234192 -0.548333E-07  0.376E-04    2.63      64.4  T
   5    -22.0234192 -0.285333E-09  0.230E-04    2.63     105.6  T
     SCC iter.                  ...        0 min,  0.419 sec
     gradient                   ...        0 min,  0.029 sec
 * total energy  :   -21.6230437 Eh     change       -0.1526682E-04 Eh
   gradient norm :     0.0010641 Eh/α   predicted    -0.1168638E-04 ( -23.45%)
   displ. norm   :     0.0195928 α      lambda       -0.5265614E-05
   maximum displ.:     0.0125266 α      in ANC's #7, #5, #2, ...

........................................................................
.............................. CYCLE    7 ..............................
........................................................................
   1    -22.0240067 -0.220240E+02  0.129E-02    2.63       0.0  T
   2    -22.0240067 -0.344663E-07  0.770E-03    2.63       3.2  T
   3    -22.0240067  0.523387E-07  0.203E-03    2.63      11.9  T
   4    -22.0240067 -0.663529E-07  0.320E-04    2.63      75.8  T
   5    -22.0240067 -0.256676E-09  0.185E-04    2.63     131.0  T
     SCC iter.                  ...        0 min,  0.363 sec
     gradient                   ...        0 min,  0.043 sec
 * total energy  :   -21.6230463 Eh     change       -0.2597395E-05 Eh
   gradient norm :     0.0005667 Eh/α   predicted    -0.2633509E-05 (   1.39%)
   displ. norm   :     0.0047597 α      lambda       -0.6521000E-06
   maximum displ.:     0.0035994 α      in ANC's #7, #3, #5, ...

........................................................................
.............................. CYCLE    8 ..............................
........................................................................
   1    -22.0238451 -0.220238E+02  0.385E-03    2.64       0.0  T
   2    -22.0238451 -0.165803E-08  0.228E-03    2.64      10.6  T
   3    -22.0238451  0.365903E-08  0.558E-04    2.64      43.5  T
   4    -22.0238451 -0.448598E-08  0.882E-05    2.64     274.9  T
     SCC iter.                  ...        0 min,  0.279 sec
     gradient                   ...        0 min,  0.038 sec
 * total energy  :   -21.6230468 Eh     change       -0.5232055E-06 Eh
   gradient norm :     0.0000875 Eh/α   predicted    -0.3251854E-06 ( -37.85%)
   displ. norm   :     0.0029624 α      lambda       -0.5968182E-07
   maximum displ.:     0.0021469 α      in ANC's #3, #2, #5, ...

   *** GEOMETRY OPTIMIZATION CONVERGED AFTER 8 ITERATIONS ***

------------------------------------------------------------------------
 total energy gain   :        -0.0065275 Eh       -4.0960 kcal/mol
 total RMSD          :         0.0562002 a0        0.0297 Å
 total power (kW/mol):        -2.1422278 (step)   -2.6239 (real)
------------------------------------------------------------------------

 ANCopt (total)                0 d,  0 h,  0 min,  6.531 sec
 optimizer setup                ...        0 min,  0.000 sec (  0.007%)
 model hessian                  ...        0 min,  0.039 sec (  0.603%)
 ANC generation                 ...        0 min,  0.090 sec (  1.385%)
 coordinate transformation      ...        0 min,  0.000 sec (  0.002%)
 single point calculation       ...        0 min,  6.356 sec ( 97.319%)
 optimization log               ...        0 min,  0.002 sec (  0.026%)
 hessian update                 ...        0 min,  0.040 sec (  0.615%)
 rational function              ...        0 min,  0.002 sec (  0.030%)

================
 final structure:
================
17
 xtb: 6.5.1 (b24c23e)
C            1.11826538766414       -0.70123954638918        1.33857452701962
C            1.16701532908488        1.66053475524130        1.33966673006782
C           -0.24166203865697       -0.75971105400816        1.34976778506451
C            1.85669887571187        0.44463965103754        1.33392542109395
C           -0.22237030271767        1.63555437652756        1.35020837310220
C           -0.94467519357483        0.45141321622950        1.35590065468217
H           -0.77681509400299       -1.69820360712155        1.35372004818391
H            2.93694147794730        0.42973915177354        1.32733826692139
H           -0.75825585849515        2.57552758629202        1.35482832509437
C           -2.44440428567903        0.45260941692370        1.34204234703438
H           -2.83371286383563        1.33697226544401        1.84231664979031
H           -2.80589887895736        0.45770492062603        0.31252423321974
H           -2.83889927582836       -0.43388770238202        1.83391689640127
C            1.90867614942618        2.96432337358515        1.33910137917611
H            1.61249716948115        3.56747545137361        0.48108291401501
H            1.67726546145269        3.52951567975984        2.24206717431111
H            2.98318884097976        2.80389784508710        1.29689886482215

 Bond Distances (Angstroems)
 ---------------------------
C1-C3=1.3612         C1-C4=1.3632         C2-C4=1.3979         C2-C5=1.3897         C2-C14=1.5000        C3-C1=1.3612         
C3-C6=1.4004         C3-H7=1.0804         C4-C1=1.3632         C4-C2=1.3979         C4-H8=1.0804         C5-C2=1.3897         
C5-C6=1.3871         C5-H9=1.0820         C6-C3=1.4004         C6-C5=1.3871         C6-C10=1.4998        H7-C3=1.0804         
H8-C4=1.0804         H9-C5=1.0820         C10-C6=1.4998        C10-H11=1.0881       C10-H12=1.0912       C10-H13=1.0879       
H11-C10=1.0881       H12-C10=1.0912       H13-C10=1.0879       C14-C2=1.5000        C14-H15=1.0898       C14-H16=1.0901       
C14-H17=1.0872       H15-C14=1.0898       H16-C14=1.0901       H17-C14=1.0872       
 C  H  Rav=1.0863 sigma=0.0040  Rmin=1.0804  Rmax=1.0912     9
 C  C  Rav=1.4124 sigma=0.0523  Rmin=1.3612  Rmax=1.5000     8

 selected bond angles (degree)
 --------------------
C4-C1-C3=125.26                C5-C2-C4=118.53                C14-C2-C4=120.80               C14-C2-C5=120.66               
C6-C3-C1=117.67                H7-C3-C1=122.16                H7-C3-C6=120.17                C2-C4-C1=117.64                
H8-C4-C1=122.01                H8-C4-C2=120.35                C6-C5-C2=122.41                H9-C5-C2=118.66                
H9-C5-C6=118.93                C5-C6-C3=118.48                C10-C6-C3=120.17               C10-C6-C5=121.33               
H11-C10-C6=110.74              H12-C10-C6=109.88              H12-C10-H11=108.15             H13-C10-C6=110.96              
H13-C10-H11=108.95             H13-C10-H12=108.08             

 selected dihedral angles (degree)
 ---------------------------------
C6-C3-C1-C4=  0.06            H7-C3-C1-C4=180.05            C2-C4-C1-C3=359.93            H8-C4-C1-C3=179.85            
C1-C4-C2-C5=  0.02            C1-C4-C2-C14=179.82           H8-C4-C2-C5=180.10            H8-C4-C2-C14=359.90           
C6-C5-C2-C4=  0.03            C6-C5-C2-C14=180.24           H9-C5-C2-C4=179.99            H9-C5-C2-C14=  0.19           
C5-C6-C3-C1=  0.00            C5-C6-C3-H7=180.02            C10-C6-C3-C1=178.84           C10-C6-C3-H7=358.85           
C3-C6-C5-C2=359.95            C3-C6-C5-H9=180.00            C10-C6-C5-C2=181.13           C10-C6-C5-H9=  1.17           
H11-C10-C6-C3=150.92          H11-C10-C6-C5=329.72          H12-C10-C6-C3=270.33          H12-C10-C6-C5= 89.13          
H13-C10-C6-C3= 29.79          H13-C10-C6-C5=208.60          
           -------------------------------------------------
          |                Final Singlepoint                |
           -------------------------------------------------

          ...................................................
          :                      SETUP                      :
          :.................................................:
          :  # basis functions                  41          :
          :  # atomic orbitals                  41          :
          :  # shells                           25          :
          :  # electrons                        41          :
          :  max. iterations                   250          :
          :  Hamiltonian                  GFN2-xTB          :
          :  restarted?                      false          :
          :  GBSA solvation                   true          :
          :  PC potential                    false          :
          :  electronic temp.          300.0000000     K    :
          :  accuracy                    1.0000000          :
          :  -> integral cutoff          0.2500000E+02      :
          :  -> integral neglect         0.1000000E-07      :
          :  -> SCF convergence          0.1000000E-05 Eh   :
          :  -> wf. convergence          0.1000000E-03 e    :
          :  Broyden damping             0.4000000          :
          ...................................................

 iter      E             dE          RMSdq      gap      omega  full diag
   1    -22.0238451 -0.220238E+02  0.515E-05    2.64       0.0  T
   2    -22.0238451 -0.483880E-11  0.319E-05    2.64     760.5  T
   3    -22.0238451 -0.153477E-11  0.205E-05    2.64    1182.0  T

   *** convergence criteria satisfied after 3 iterations ***

         #    Occupation            Energy/Eh            Energy/eV
      -------------------------------------------------------------
         1        2.0000           -0.6409817             -17.4420
       ...           ...                  ...                  ...
        15        2.0000           -0.4493384             -12.2271
        16        2.0000           -0.4486061             -12.2072
        17        2.0000           -0.4455502             -12.1240
        18        2.0000           -0.4232550             -11.5174
        19        2.0000           -0.3903468             -10.6219
        20        2.0000           -0.3862371             -10.5100
        21        1.0000           -0.3141150              -8.5475 (HOMO)
        22                         -0.2172544              -5.9118 (LUMO)
        23                         -0.2068066              -5.6275
        24                         -0.0829556              -2.2573
        25                          0.1008025               2.7430
        26                          0.1223070               3.3281
       ...                                ...                  ...
        41                          0.6656681              18.1138
      -------------------------------------------------------------
                  HL-Gap            0.0968606 Eh            2.6357 eV
             Fermi-level           -0.3079304 Eh           -8.3792 eV

 SCC (total)                   0 d,  0 h,  0 min,  0.256 sec
 SCC setup                      ...        0 min,  0.000 sec (  0.069%)
 Dispersion                     ...        0 min,  0.000 sec (  0.023%)
 classical contributions        ...        0 min,  0.000 sec (  0.010%)
 integral evaluation            ...        0 min,  0.001 sec (  0.208%)
 iterations                     ...        0 min,  0.224 sec ( 87.489%)
 molecular gradient             ...        0 min,  0.031 sec ( 12.150%)
 printout                       ...        0 min,  0.000 sec (  0.037%)

         :::::::::::::::::::::::::::::::::::::::::::::::::::::
         ::                     SUMMARY                     ::
         :::::::::::::::::::::::::::::::::::::::::::::::::::::
         :: total energy             -21.623046846732 Eh    ::
         :: total w/o Gsasa/hb       -21.613603608404 Eh    ::
         :: gradient norm              0.000087970100 Eh/a0 ::
         :: HOMO-LUMO gap              2.635709761516 eV    ::
         ::.................................................::
         :: SCC energy               -22.023845129219 Eh    ::
         :: -> isotropic ES            0.003557538792 Eh    ::
         :: -> anisotropic ES          0.003911398938 Eh    ::
         :: -> anisotropic XC          0.014070882873 Eh    ::
         :: -> dispersion             -0.012496123796 Eh    ::
         :: -> Gsolv                  -0.009931657311 Eh    ::
         ::    -> Gelec               -0.000488418983 Eh    ::
         ::    -> Gsasa               -0.013591935689 Eh    ::
         ::    -> Ghb                  0.000000000000 Eh    ::
         ::    -> Gshift               0.004148697361 Eh    ::
         :: repulsion energy           0.400774295485 Eh    ::
         :: add. restraining           0.000000000000 Eh    ::
         :: total charge              -0.000000000000 e     ::
         :::::::::::::::::::::::::::::::::::::::::::::::::::::

           -------------------------------------------------
          |                Property Printout                |
           -------------------------------------------------

    * Orbital Energies and Occupations

         #    Occupation            Energy/Eh            Energy/eV
      -------------------------------------------------------------
         1        2.0000           -0.6409817             -17.4420
       ...           ...                  ...                  ...
         9        2.0000           -0.5033665             -13.6973
        10        2.0000           -0.4968557             -13.5201
        11        2.0000           -0.4853793             -13.2078
        12        2.0000           -0.4841924             -13.1755
        13        2.0000           -0.4690972             -12.7648
        14        2.0000           -0.4676609             -12.7257
        15        2.0000           -0.4493384             -12.2271
        16        2.0000           -0.4486061             -12.2072
        17        2.0000           -0.4455502             -12.1240
        18        2.0000           -0.4232550             -11.5174
        19        2.0000           -0.3903468             -10.6219
        20        2.0000           -0.3862371             -10.5100
        21        1.0000           -0.3141150              -8.5475 (HOMO)
        22                         -0.2172544              -5.9118 (LUMO)
        23                         -0.2068066              -5.6275
        24                         -0.0829556              -2.2573
        25                          0.1008025               2.7430
        26                          0.1223070               3.3281
        27                          0.1476812               4.0186
        28                          0.1714547               4.6655
        29                          0.1847542               5.0274
        30                          0.1966320               5.3506
        31                          0.2004670               5.4550
        32                          0.2042691               5.5584
       ...                                ...                  ...
        41                          0.6656681              18.1138
      -------------------------------------------------------------
                  HL-Gap            0.0968606 Eh            2.6357 eV
             Fermi-level           -0.3079304 Eh           -8.3792 eV

     #   Z          covCN         q      C6AA      α(0)
     1   6 C        2.014    -0.079    33.179     9.303
     2   6 C        2.975     0.017    27.626     8.622
     3   6 C        2.920    -0.037    28.921     8.819
     4   6 C        2.919    -0.037    28.911     8.817
     5   6 C        2.928    -0.058    29.438     8.898
     6   6 C        2.974     0.017    27.624     8.621
     7   1 H        0.926     0.037     2.493     2.469
     8   1 H        0.926     0.036     2.502     2.474
     9   1 H        0.925     0.035     2.521     2.483
    10   6 C        3.757    -0.107    22.601     6.778
    11   1 H        0.925     0.046     2.369     2.407
    12   1 H        0.924     0.050     2.322     2.383
    13   1 H        0.925     0.046     2.372     2.408
    14   6 C        3.757    -0.107    22.601     6.778
    15   1 H        0.925     0.049     2.338     2.391
    16   1 H        0.925     0.049     2.335     2.390
    17   1 H        0.925     0.044     2.394     2.419

 Mol. C6AA /au·bohr⁶  :       3120.530140
 Mol. C8AA /au·bohr⁸  :      75026.657757
 Mol. α(0) /au        :         88.460320


Wiberg/Mayer (AO) data.
largest (>0.10) Wiberg bond orders for each atom

 ---------------------------------------------------------------------------
     #   Z sym  total        # sym  WBO       # sym  WBO       # sym  WBO
 ---------------------------------------------------------------------------
     1   6 C    3.107 --     3 C    1.480     4 C    1.467     5 C    0.104
     2   6 C    3.933 --     5 C    1.416     4 C    1.358    14 C    1.019
                             3 C    0.111
     3   6 C    3.954 --     1 C    1.480     6 C    1.345     7 H    0.957
                             2 C    0.111
     4   6 C    3.954 --     1 C    1.467     2 C    1.358     8 H    0.957
                             6 C    0.110
     5   6 C    3.988 --     6 C    1.429     2 C    1.416     9 H    0.962
                             1 C    0.104
     6   6 C    3.932 --     5 C    1.429     3 C    1.345    10 C    1.019
                             4 C    0.110
     7   1 H    0.985 --     3 C    0.957
     8   1 H    0.985 --     4 C    0.957
     9   1 H    0.990 --     5 C    0.962
    10   6 C    3.985 --     6 C    1.019    13 H    0.982    11 H    0.979
                            12 H    0.967
    11   1 H    0.995 --    10 C    0.979
    12   1 H    0.997 --    10 C    0.967
    13   1 H    0.997 --    10 C    0.982
    14   6 C    3.985 --     2 C    1.019    17 H    0.985    15 H    0.972
                            16 H    0.971
    15   1 H    0.996 --    14 C    0.972
    16   1 H    0.996 --    14 C    0.971
    17   1 H    0.997 --    14 C    0.985
 ---------------------------------------------------------------------------

Topologies differ in total number of bonds
Writing topology from bond orders to xtbtopo.mol

molecular dipole:
                 x           y           z       tot (Debye)
 q only:       -0.248       0.414      -0.009
   full:       -0.337       0.562      -0.017       1.665
molecular quadrupole (traceless):
                xx          xy          yy          xz          yz          zz
 q only:        1.462       1.961       1.262      -0.868       1.565      -2.724
  q+dip:        3.059       2.854       2.619      -1.166       2.121      -5.678
   full:        1.811       2.610       1.641      -1.144       2.121      -3.452

           -------------------------------------------------
          |                Geometry Summary                 |
           -------------------------------------------------

      molecular mass/u    :      105.1573540
   center of mass at/Å    :        0.2432930       0.8226914       1.3431871
  moments of inertia/u·Å² :        0.1294624E+03   0.2843874E+03   0.4075816E+03
rotational constants/cm⁻¹ :        0.1302125E+00   0.5927699E-01   0.4136014E-01

 * 15 selected distances

     #   Z          #   Z                                           value/Å
     1   6 C        3   6 C                                       1.3612300
     1   6 C        4   6 C                                       1.3632113
     2   6 C        4   6 C                                       1.3978904
     2   6 C        5   6 C                                       1.3896503
     3   6 C        6   6 C                                       1.4003883 (max)
     5   6 C        6   6 C                                       1.3870643
     3   6 C        7   1 H                                       1.0803578 (min)
     4   6 C        8   1 H                                       1.0803655
     5   6 C        9   1 H                                       1.0820095
    10   6 C       11   1 H                                       1.0880870
    10   6 C       12   1 H                                       1.0911517
    10   6 C       13   1 H                                       1.0878622
    14   6 C       15   1 H                                       1.0898212
    14   6 C       16   1 H                                       1.0901104
    14   6 C       17   1 H                                       1.0872420

 * 2 distinct bonds (by element types)

   Z      Z             #   av. dist./Å        max./Å        min./Å
   1 H    6 C           9     1.0863342     1.0911517     1.0803578
   6 C    6 C           6     1.3832391     1.4003883     1.3612300


optimized geometry written to: xtbopt.xyz


           -------------------------------------------------
          | TOTAL ENERGY              -21.623046846732 Eh   |
          | GRADIENT NORM               0.000087970100 Eh/α |
          | HOMO-LUMO GAP               2.635709761516 eV   |
           -------------------------------------------------

------------------------------------------------------------------------
 * finished run on 2022/11/14 at 22:11:23.731     
------------------------------------------------------------------------
 total:
 * wall-time:     0 d,  0 h,  0 min,  9.397 sec
 *  cpu-time:     0 d,  0 h,  0 min, 45.875 sec
 * ratio c/w:     4.882 speedup
 SCF:
 * wall-time:     0 d,  0 h,  0 min,  2.445 sec
 *  cpu-time:     0 d,  0 h,  0 min,  9.406 sec
 * ratio c/w:     3.848 speedup
 ANC optimizer:
 * wall-time:     0 d,  0 h,  0 min,  6.828 sec
 *  cpu-time:     0 d,  0 h,  0 min, 35.781 sec
 * ratio c/w:     5.240 speedup

