      -----------------------------------------------------------      
     |                   =====================                   |     
     |                           x T B                           |     
     |                   =====================                   |     
     |                         S. Grimme                         |     
     |          Mulliken Center for Theoretical Chemistry        |     
     |                    University of Bonn                     |     
      -----------------------------------------------------------      

   * xtb version 6.5.1 (b24c23e) compiled by 'conda@728c89f4b128' on 2022-07-12

   xtb is free software: you can redistribute it and/or modify it under
   the terms of the GNU Lesser General Public License as published by
   the Free Software Foundation, either version 3 of the License, or
   (at your option) any later version.
   
   xtb is distributed in the hope that it will be useful,
   but WITHOUT ANY WARRANTY; without even the implied warranty of
   MERCHANTABILITY or FITNESS FOR A PARTICULAR PURPOSE.  See the
   GNU Lesser General Public License for more details.
   
   Cite this work as:
   * C. Bannwarth, E. Caldeweyher, S. Ehlert, A. Hansen, P. Pracht,
     J. Seibert, S. Spicher, S. Grimme, WIREs Comput. Mol. Sci., 2020, 11,
     e01493. DOI: 10.1002/wcms.1493
   
   for GFN2-xTB:
   * C. Bannwarth, S. Ehlert and S. Grimme., J. Chem. Theory Comput., 2019,
     15, 1652-1671. DOI: 10.1021/acs.jctc.8b01176
   for GFN1-xTB:
   * S. Grimme, C. Bannwarth, P. Shushkov, J. Chem. Theory Comput., 2017,
     13, 1989-2009. DOI: 10.1021/acs.jctc.7b00118
   for GFN0-xTB:
   * P. Pracht, E. Caldeweyher, S. Ehlert, S. Grimme, ChemRxiv, 2019, preprint.
     DOI: 10.26434/chemrxiv.8326202.v1
   for GFN-FF:
   * S. Spicher and S. Grimme, Angew. Chem. Int. Ed., 2020, 59, 15665-15673.
     DOI: 10.1002/anie.202004239
   
   for ALPB and GBSA implicit solvation:
   * S. Ehlert, M. Stahn, S. Spicher, S. Grimme, J. Chem. Theory Comput.,
     2021, 17, 4250-4261. DOI: 10.1021/acs.jctc.1c00471
   
   for DFT-D4:
   * E. Caldeweyher, C. Bannwarth and S. Grimme, J. Chem. Phys., 2017,
     147, 034112. DOI: 10.1063/1.4993215
   * E. Caldeweyher, S. Ehlert, A. Hansen, H. Neugebauer, S. Spicher,
     C. Bannwarth and S. Grimme, J. Chem. Phys., 2019, 150, 154122.
     DOI: 10.1063/1.5090222
   * E. Caldeweyher, J.-M. Mewes, S. Ehlert and S. Grimme, Phys. Chem. Chem. Phys.
     2020, 22, 8499-8512. DOI: 10.1039/D0CP00502A
   
   for sTDA-xTB:
   * S. Grimme and C. Bannwarth, J. Chem. Phys., 2016, 145, 054103.
     DOI: 10.1063/1.4959605
   
   in the mass-spec context:
   * V. Asgeirsson, C. Bauer and S. Grimme, Chem. Sci., 2017, 8, 4879.
     DOI: 10.1039/c7sc00601b
   * J. Koopman and S. Grimme, ACS Omega 2019, 4, 12, 15120-15133.
     DOI: 10.1021/acsomega.9b02011
   
   for metadynamics refer to:
   * S. Grimme, J. Chem. Theory Comput., 2019, 155, 2847-2862
     DOI: 10.1021/acs.jctc.9b00143
   
   for SPH calculations refer to:
   * S. Spicher and S. Grimme, J. Chem. Theory Comput., 2021, 17, 1701-1714
     DOI: 10.1021/acs.jctc.0c01306
   
   with help from (in alphabetical order)
   P. Atkinson, C. Bannwarth, F. Bohle, G. Brandenburg, E. Caldeweyher
   M. Checinski, S. Dohm, S. Ehlert, S. Ehrlich, I. Gerasimov, C. Hölzer
   A. Katbashev, J. Koopman, C. Lavigne, S. Lehtola, F. März, M. Müller,
   F. Musil, H. Neugebauer, J. Pisarek, C. Plett, P. Pracht, F. Pultar,
   J. Seibert, P. Shushkov, S. Spicher, M. Stahn, M. Steiner, T. Strunk,
   J. Stückrath, T. Rose, and J. Unsleber
   
 * started run on 2022/11/14 at 22:12:14.938     

           -------------------------------------------------
          |                Calculation Setup                |
           -------------------------------------------------

          program call               : xtb furanyl.xyz --gfn2 --chrg 0 --uhf 1 --alpb ch2cl2 --opt 1
          coordinate file            : furanyl.xyz
          omp threads                :                     8

   ID    Z sym.   atoms
    1    6 C      1-4
    2    8 O      5
    3    1 H      6-8

           -------------------------------------------------
          |                 G F N 2 - x T B                 |
           -------------------------------------------------

        Reference                      10.1021/acs.jctc.8b01176
      * Hamiltonian:
        H0-scaling (s, p, d)           1.850000    2.230000    2.230000
        zeta-weighting                 0.500000
      * Dispersion:
        s8                             2.700000
        a1                             0.520000
        a2                             5.000000
        s9                             5.000000
      * Repulsion:
        kExp                           1.500000    1.000000
        rExp                           1.000000
      * Coulomb:
        alpha                          2.000000
        third order                    shell-resolved
        anisotropic                    true
        a3                             3.000000
        a5                             4.000000
        cn-shift                       1.200000
        cn-exp                         4.000000
        max-rad                        5.000000

      * Solvation model:               ALPB
        Solvent                        ch2cl2
        Parameter file                 internal GFN2-xTB/ALPB
        Dielectric constant                8.9300E+00
        Reference state                gsolv [1 M gas/solution]
        Free energy shift                  4.1487E-03 Eh       2.6033E+00 kcal/mol
        Temperature                        2.9815E+02 K
        Density                            1.3300E+00 kg/L
        Solvent mass                       8.4930E+01 g/mol
        Interaction kernel             P16
        Born radius scaling (c1)           1.5691E+00
        Born radii integrator          GBOBC
        Born offset                        0.0000E+00 a0       0.0000E+00 AA
        H-bond correction              false
        Ion screening                  false
        Surface tension                    1.0000E-05 Eh       1.5569E+01 dyn/cm
        Grid points                               230 per atom

          ...................................................
          :                      SETUP                      :
          :.................................................:
          :  # basis functions                  23          :
          :  # atomic orbitals                  23          :
          :  # shells                           13          :
          :  # electrons                        25          :
          :  max. iterations                   250          :
          :  Hamiltonian                  GFN2-xTB          :
          :  restarted?                      false          :
          :  GBSA solvation                   true          :
          :  PC potential                    false          :
          :  electronic temp.          300.0000000     K    :
          :  accuracy                    1.0000000          :
          :  -> integral cutoff          0.2500000E+02      :
          :  -> integral neglect         0.1000000E-07      :
          :  -> SCF convergence          0.1000000E-05 Eh   :
          :  -> wf. convergence          0.1000000E-03 e    :
          :  Broyden damping             0.4000000          :
          ...................................................

 iter      E             dE          RMSdq      gap      omega  full diag
   1    -14.1769241 -0.141769E+02  0.531E+00    4.03       0.0  T
   2    -14.1833334 -0.640934E-02  0.314E+00    4.05       1.0  T
   3    -14.1749742  0.835923E-02  0.123E+00    4.04       1.0  T
   4    -14.1849361 -0.996194E-02  0.320E-01    4.08       1.0  T
   5    -14.1853419 -0.405790E-03  0.111E-01    4.02       1.0  T
   6    -14.1853901 -0.481423E-04  0.608E-02    4.05       1.0  T
   7    -14.1853976 -0.757773E-05  0.264E-02    4.04       1.3  T
   8    -14.1853991 -0.143994E-05  0.956E-03    4.04       3.7  T
   9    -14.1853992 -0.731433E-07  0.191E-03    4.04      18.5  T
  10    -14.1853992 -0.826913E-08  0.683E-04    4.04      51.7  T
  11    -14.1853992 -0.219524E-08  0.991E-05    4.04     356.7  T

   *** convergence criteria satisfied after 11 iterations ***

         #    Occupation            Energy/Eh            Energy/eV
      -------------------------------------------------------------
         1        2.0000           -0.7313837             -19.9020
       ...           ...                  ...                  ...
         7        2.0000           -0.5460207             -14.8580
         8        2.0000           -0.4903151             -13.3422
         9        2.0000           -0.4857161             -13.2170
        10        2.0000           -0.4756192             -12.9423
        11        2.0000           -0.4330552             -11.7840
        12        1.9999           -0.3992850             -10.8651
        13        1.0001           -0.3813976             -10.3784 (HOMO)
        14                         -0.2327981              -6.3348 (LUMO)
        15                         -0.1803306              -4.9070
        16                          0.0422163               1.1488
        17                          0.0824354               2.2432
        18                          0.0957277               2.6049
       ...                                ...                  ...
        23                          0.6057202              16.4825
      -------------------------------------------------------------
                  HL-Gap            0.1485995 Eh            4.0436 eV
             Fermi-level           -0.3487196 Eh           -9.4891 eV

 SCC (total)                   0 d,  0 h,  0 min,  1.855 sec
 SCC setup                      ...        0 min,  0.026 sec (  1.398%)
 Dispersion                     ...        0 min,  0.016 sec (  0.883%)
 classical contributions        ...        0 min,  0.014 sec (  0.779%)
 integral evaluation            ...        0 min,  0.021 sec (  1.121%)
 iterations                     ...        0 min,  1.479 sec ( 79.690%)
 molecular gradient             ...        0 min,  0.299 sec ( 16.114%)
 printout                       ...        0 min,  0.000 sec (  0.010%)

         :::::::::::::::::::::::::::::::::::::::::::::::::::::
         ::                     SUMMARY                     ::
         :::::::::::::::::::::::::::::::::::::::::::::::::::::
         :: total energy             -14.022136371124 Eh    ::
         :: total w/o Gsasa/hb       -14.017288782995 Eh    ::
         :: gradient norm              0.085891415831 Eh/a0 ::
         :: HOMO-LUMO gap              4.043597657317 eV    ::
         ::.................................................::
         :: SCC energy               -14.185399173120 Eh    ::
         :: -> isotropic ES            0.009539442482 Eh    ::
         :: -> anisotropic ES          0.000407946945 Eh    ::
         :: -> anisotropic XC          0.005616562252 Eh    ::
         :: -> dispersion             -0.004175018742 Eh    ::
         :: -> Gsolv                  -0.005810958617 Eh    ::
         ::    -> Gelec               -0.000963370488 Eh    ::
         ::    -> Gsasa               -0.008996285490 Eh    ::
         ::    -> Ghb                  0.000000000000 Eh    ::
         ::    -> Gshift               0.004148697361 Eh    ::
         :: repulsion energy           0.163262223919 Eh    ::
         :: add. restraining           0.000000000000 Eh    ::
         :: total charge              -0.000000000000 e     ::
         :::::::::::::::::::::::::::::::::::::::::::::::::::::

      ----------------------------------------------------------- 
     |                   =====================                   |
     |                        A N C O P T                        |
     |                   =====================                   |
     |               Approximate Normal Coordinate               |
     |                Rational Function Optimizer                |
      ----------------------------------------------------------- 

          ...................................................
          :                      SETUP                      :
          :.................................................:
          :   optimization level             tight          :
          :   max. optcycles                   200          :
          :   ANC micro-cycles                  20          :
          :   degrees of freedom                18          :
          :.................................................:
          :   RF solver                   davidson          :
          :   write xtbopt.log                true          :
          :   linear?                        false          :
          :   energy convergence         0.1000000E-05 Eh   :
          :   grad. convergence          0.8000000E-03 Eh/α :
          :   maximium RF displ.         1.0000000          :
          :   Hlow (freq-cutoff)         0.1000000E-01      :
          :   Hmax (freq-cutoff)         5.0000000          :
          :   S6 in model hess.         20.0000000          :
          ...................................................

generating ANC from model Hessian ...
Using Lindh-Hessian (1995)
 Shifting diagonal of input Hessian by    0.0000000000000000     
 Lowest  eigenvalues of input Hessian
    0.000000    0.000000    0.000000    0.000000    0.000000    0.000000
    0.016201    0.043140    0.056369    0.088113    0.100029    0.105776
    0.150959    0.168353    0.249277    0.323628    0.346754    0.674542
 Highest eigenvalues
    0.950672    1.171234    1.471914    1.567509    1.709162    1.818640


........................................................................
.............................. CYCLE    1 ..............................
........................................................................
   1    -14.1853992 -0.141854E+02  0.845E-05    4.04       0.0  T
   2    -14.1853992 -0.100666E-10  0.690E-05    4.04     512.7  T
   3    -14.1853992 -0.402007E-10  0.121E-05    4.04    2930.7  T
     SCC iter.                  ...        0 min,  0.562 sec
     gradient                   ...        0 min,  0.320 sec
 * total energy  :   -14.0221364 Eh     change       -0.9425349E-11 Eh
   gradient norm :     0.0858845 Eh/α   predicted     0.0000000E+00 (-100.00%)
   displ. norm   :     0.1424344 α      lambda       -0.1020432E-01
   maximum displ.:     0.1042454 α      in ANC's #11, #10, #14, ...

........................................................................
.............................. CYCLE    2 ..............................
........................................................................
   1    -14.2160473 -0.142160E+02  0.434E-01    4.14       0.0  T
   2    -14.2162793 -0.232063E-03  0.252E-01    4.13       1.0  T
   3    -14.2162899 -0.105859E-04  0.158E-01    4.12       1.0  T
   4    -14.2163580 -0.681051E-04  0.459E-02    4.14       1.0  T
   5    -14.2163648 -0.680319E-05  0.103E-02    4.13       3.4  T
   6    -14.2163652 -0.406767E-06  0.624E-03    4.13       5.7  T
   7    -14.2163653 -0.989413E-07  0.165E-03    4.13      21.4  T
   8    -14.2163653 -0.357569E-08  0.780E-04    4.13      45.3  T
   9    -14.2163653 -0.741263E-09  0.952E-05    4.13     371.2  T
     SCC iter.                  ...        0 min,  0.916 sec
     gradient                   ...        0 min,  0.085 sec
 * total energy  :   -14.0289017 Eh     change       -0.6765347E-02 Eh
   gradient norm :     0.0363931 Eh/α   predicted    -0.5205672E-02 ( -23.05%)
   displ. norm   :     0.0687826 α      lambda       -0.2078680E-02
   maximum displ.:     0.0403204 α      in ANC's #14, #11, #10, ...

........................................................................
.............................. CYCLE    3 ..............................
........................................................................
   1    -14.2271374 -0.142271E+02  0.262E-01    4.19       0.0  T
   2    -14.2272799 -0.142544E-03  0.160E-01    4.20       1.0  T
   3    -14.2273249 -0.449502E-04  0.920E-02    4.19       1.0  T
   4    -14.2273396 -0.147529E-04  0.347E-02    4.20       1.0  T
   5    -14.2273420 -0.236550E-05  0.628E-03    4.19       5.6  T
   6    -14.2273421 -0.107476E-06  0.368E-03    4.19       9.6  T
   7    -14.2273421 -0.377749E-07  0.934E-04    4.19      37.9  T
   8    -14.2273421 -0.784295E-09  0.405E-04    4.19      87.4  T
     SCC iter.                  ...        0 min,  0.593 sec
     gradient                   ...        0 min,  0.040 sec
 * total energy  :   -14.0299601 Eh     change       -0.1058335E-02 Eh
   gradient norm :     0.0105724 Eh/α   predicted    -0.1044256E-02 (  -1.33%)
   displ. norm   :     0.0138078 α      lambda       -0.1053910E-03
   maximum displ.:     0.0091774 α      in ANC's #11, #6, #4, ...

........................................................................
.............................. CYCLE    4 ..............................
........................................................................
   1    -14.2254149 -0.142254E+02  0.439E-02    4.19       0.0  T
   2    -14.2254173 -0.234272E-05  0.269E-02    4.19       1.3  T
   3    -14.2254185 -0.119559E-05  0.163E-02    4.19       2.2  T
   4    -14.2254190 -0.571268E-06  0.360E-03    4.19       9.8  T
   5    -14.2254191 -0.158961E-07  0.533E-04    4.19      66.3  T
   6    -14.2254191 -0.151548E-09  0.261E-04    4.19     135.4  T
     SCC iter.                  ...        0 min,  0.516 sec
     gradient                   ...        0 min,  0.055 sec
 * total energy  :   -14.0300311 Eh     change       -0.7104530E-04 Eh
   gradient norm :     0.0037620 Eh/α   predicted    -0.5270366E-04 ( -25.82%)
   displ. norm   :     0.0112481 α      lambda       -0.2513380E-04
   maximum displ.:     0.0082696 α      in ANC's #6, #11, #9, ...

........................................................................
.............................. CYCLE    5 ..............................
........................................................................
   1    -14.2244427 -0.142244E+02  0.322E-02    4.19       0.0  T
   2    -14.2244432 -0.485448E-06  0.186E-02    4.19       1.9  T
   3    -14.2244431  0.596120E-07  0.125E-02    4.19       2.8  T
   4    -14.2244436 -0.512843E-06  0.131E-03    4.19      26.9  T
   5    -14.2244436 -0.230638E-08  0.413E-04    4.19      85.7  T
   6    -14.2244436 -0.567185E-09  0.227E-04    4.19     155.6  T
     SCC iter.                  ...        0 min,  0.374 sec
     gradient                   ...        0 min,  0.006 sec
 * total energy  :   -14.0300448 Eh     change       -0.1367534E-04 Eh
   gradient norm :     0.0007840 Eh/α   predicted    -0.1256889E-04 (  -8.09%)
   displ. norm   :     0.0047712 α      lambda       -0.1201887E-05
   maximum displ.:     0.0042000 α      in ANC's #6, #10, #4, ...

........................................................................
.............................. CYCLE    6 ..............................
........................................................................
   1    -14.2244541 -0.142245E+02  0.111E-02    4.19       0.0  T
   2    -14.2244541 -0.175396E-07  0.662E-03    4.19       5.3  T
   3    -14.2244541  0.441346E-07  0.314E-03    4.19      11.3  T
   4    -14.2244541 -0.571071E-07  0.241E-04    4.19     147.0  T
   5    -14.2244541 -0.341041E-09  0.814E-05    4.19     434.5  T
     SCC iter.                  ...        0 min,  0.381 sec
     gradient                   ...        0 min,  0.124 sec
 * total energy  :   -14.0300457 Eh     change       -0.8923672E-06 Eh
   gradient norm :     0.0003453 Eh/α   predicted    -0.5999391E-06 ( -32.77%)
   displ. norm   :     0.0029879 α      lambda       -0.2652095E-06
   maximum displ.:     0.0019840 α      in ANC's #1, #3, #2, ...

   *** GEOMETRY OPTIMIZATION CONVERGED AFTER 6 ITERATIONS ***

------------------------------------------------------------------------
 total energy gain   :        -0.0079093 Eh       -4.9632 kcal/mol
 total RMSD          :         0.0721075 a0        0.0382 Å
 total power (kW/mol):        -3.4609754 (step)   -4.3719 (real)
------------------------------------------------------------------------

 ANCopt (total)                0 d,  0 h,  0 min,  4.750 sec
 optimizer setup                ...        0 min,  0.000 sec (  0.008%)
 model hessian                  ...        0 min,  0.021 sec (  0.439%)
 ANC generation                 ...        0 min,  0.115 sec (  2.414%)
 coordinate transformation      ...        0 min,  0.000 sec (  0.002%)
 single point calculation       ...        0 min,  4.578 sec ( 96.385%)
 optimization log               ...        0 min,  0.011 sec (  0.231%)
 hessian update                 ...        0 min,  0.023 sec (  0.481%)
 rational function              ...        0 min,  0.001 sec (  0.021%)

================
 final structure:
================
8
 xtb: 6.5.1 (b24c23e)
C            0.45159476258117        1.96044168723190       -0.58493255662120
C           -0.18235477898092       -0.08254646504976       -0.58500441791399
C            1.17884240615918       -0.09975579362574       -0.58475035067394
C            1.60897137843962        1.26358041806318       -0.58497311368183
O           -0.62794301579870        1.19722150188323       -0.58465647739617
H           -0.91934982595974       -0.86050873609182       -0.58498531761256
H            1.82356056143002       -0.95541950853777       -0.58448008199642
H            2.61083871212937        1.63500753612678       -0.58486140410389

 Bond Distances (Angstroems)
 ---------------------------
C1-C4=1.3510         C1-O5=1.3221         C2-C3=1.3613         C2-O5=1.3551         C2-H6=1.0716         C3-C2=1.3613         
C3-C4=1.4296         C3-H7=1.0714         C4-C1=1.3510         C4-C3=1.4296         C4-H8=1.0685         O5-C1=1.3221         
O5-C2=1.3551         H6-C2=1.0716         H7-C3=1.0714         H8-C4=1.0685         
 C  H  Rav=1.0705 sigma=0.0014  Rmin=1.0685  Rmax=1.0716     3
 C  C  Rav=1.3806 sigma=0.0349  Rmin=1.3510  Rmax=1.4296     3
 O  C  Rav=1.3386 sigma=0.0165  Rmin=1.3221  Rmax=1.3551     2

 selected bond angles (degree)
 --------------------
O5-C1-C4=113.69                O5-C2-C3=109.92                H6-C2-C3=132.73                H6-C2-O5=117.35                
C4-C3-C2=106.79                H7-C3-C2=127.72                H7-C3-C4=125.49                C3-C4-C1=103.54                
H8-C4-C1=128.61                H8-C4-C3=127.85                C2-O5-C1=106.06                

 selected dihedral angles (degree)
 ---------------------------------
C4-C3-C2-O5=359.97            C4-C3-C2-H6=180.00            H7-C3-C2-O5=179.97            H7-C3-C2-H6=  0.00            
C3-C4-C1-O5=  0.00            H8-C4-C1-O5=180.02            C1-C4-C3-C2=  0.00            C1-C4-C3-H7=180.02            
H8-C4-C3-C2=180.00            H8-C4-C3-H7=  0.00            C2-O5-C1-C4=  0.00            C1-O5-C2-C3=  0.03            
C1-O5-C2-H6=180.01            
           -------------------------------------------------
          |                Final Singlepoint                |
           -------------------------------------------------

          ...................................................
          :                      SETUP                      :
          :.................................................:
          :  # basis functions                  23          :
          :  # atomic orbitals                  23          :
          :  # shells                           13          :
          :  # electrons                        25          :
          :  max. iterations                   250          :
          :  Hamiltonian                  GFN2-xTB          :
          :  restarted?                      false          :
          :  GBSA solvation                   true          :
          :  PC potential                    false          :
          :  electronic temp.          300.0000000     K    :
          :  accuracy                    1.0000000          :
          :  -> integral cutoff          0.2500000E+02      :
          :  -> integral neglect         0.1000000E-07      :
          :  -> SCF convergence          0.1000000E-05 Eh   :
          :  -> wf. convergence          0.1000000E-03 e    :
          :  Broyden damping             0.4000000          :
          ...................................................

 iter      E             dE          RMSdq      gap      omega  full diag
   1    -14.2244541 -0.142245E+02  0.524E-05    4.19       0.0  T
   2    -14.2244541 -0.385825E-11  0.355E-05    4.19     997.2  T
   3    -14.2244541 -0.654765E-11  0.180E-05    4.19    1966.9  T

   *** convergence criteria satisfied after 3 iterations ***

         #    Occupation            Energy/Eh            Energy/eV
      -------------------------------------------------------------
         1        2.0000           -0.7460625             -20.3014
       ...           ...                  ...                  ...
         7        2.0000           -0.5490546             -14.9405
         8        2.0000           -0.4889061             -13.3038
         9        2.0000           -0.4850216             -13.1981
        10        2.0000           -0.4741385             -12.9020
        11        2.0000           -0.4327315             -11.7752
        12        2.0000           -0.3979135             -10.8278
        13        1.0000           -0.3681878             -10.0189 (HOMO)
        14                         -0.2143095              -5.8317 (LUMO)
        15                         -0.1677264              -4.5641
        16                          0.0990751               2.6960
        17                          0.1225219               3.3340
        18                          0.1601428               4.3577
       ...                                ...                  ...
        23                          0.6789835              18.4761
      -------------------------------------------------------------
                  HL-Gap            0.1538783 Eh            4.1872 eV
             Fermi-level           -0.3371496 Eh           -9.1743 eV

 SCC (total)                   0 d,  0 h,  0 min,  0.378 sec
 SCC setup                      ...        0 min,  0.035 sec (  9.301%)
 Dispersion                     ...        0 min,  0.000 sec (  0.009%)
 classical contributions        ...        0 min,  0.000 sec (  0.005%)
 integral evaluation            ...        0 min,  0.001 sec (  0.148%)
 iterations                     ...        0 min,  0.214 sec ( 56.529%)
 molecular gradient             ...        0 min,  0.128 sec ( 33.948%)
 printout                       ...        0 min,  0.000 sec (  0.045%)

         :::::::::::::::::::::::::::::::::::::::::::::::::::::
         ::                     SUMMARY                     ::
         :::::::::::::::::::::::::::::::::::::::::::::::::::::
         :: total energy             -14.030045666586 Eh    ::
         :: total w/o Gsasa/hb       -14.025371839115 Eh    ::
         :: gradient norm              0.000344846290 Eh/a0 ::
         :: HOMO-LUMO gap              4.187241096536 eV    ::
         ::.................................................::
         :: SCC energy               -14.224454112585 Eh    ::
         :: -> isotropic ES            0.006998847532 Eh    ::
         :: -> anisotropic ES          0.001119920678 Eh    ::
         :: -> anisotropic XC          0.004394858012 Eh    ::
         :: -> dispersion             -0.004194801817 Eh    ::
         :: -> Gsolv                  -0.005243282903 Eh    ::
         ::    -> Gelec               -0.000569455431 Eh    ::
         ::    -> Gsasa               -0.008822524833 Eh    ::
         ::    -> Ghb                  0.000000000000 Eh    ::
         ::    -> Gshift               0.004148697361 Eh    ::
         :: repulsion energy           0.194407956647 Eh    ::
         :: add. restraining           0.000000000000 Eh    ::
         :: total charge               0.000000000000 e     ::
         :::::::::::::::::::::::::::::::::::::::::::::::::::::

           -------------------------------------------------
          |                Property Printout                |
           -------------------------------------------------

    * Orbital Energies and Occupations

         #    Occupation            Energy/Eh            Energy/eV
      -------------------------------------------------------------
         1        2.0000           -0.7460625             -20.3014
         2        2.0000           -0.6652140             -18.1014
         3        2.0000           -0.6620767             -18.0160
         4        2.0000           -0.5944281             -16.1752
         5        2.0000           -0.5800317             -15.7835
         6        2.0000           -0.5718969             -15.5621
         7        2.0000           -0.5490546             -14.9405
         8        2.0000           -0.4889061             -13.3038
         9        2.0000           -0.4850216             -13.1981
        10        2.0000           -0.4741385             -12.9020
        11        2.0000           -0.4327315             -11.7752
        12        2.0000           -0.3979135             -10.8278
        13        1.0000           -0.3681878             -10.0189 (HOMO)
        14                         -0.2143095              -5.8317 (LUMO)
        15                         -0.1677264              -4.5641
        16                          0.0990751               2.6960
        17                          0.1225219               3.3340
        18                          0.1601428               4.3577
        19                          0.2145793               5.8390
        20                          0.2747758               7.4770
        21                          0.4260526              11.5935
        22                          0.4740760              12.9003
        23                          0.6789835              18.4761
      -------------------------------------------------------------
                  HL-Gap            0.1538783 Eh            4.1872 eV
             Fermi-level           -0.3371496 Eh           -9.1743 eV

     #   Z          covCN         q      C6AA      α(0)
     1   6 C        2.221     0.049    29.092     8.732
     2   6 C        3.085     0.062    26.520     8.442
     3   6 C        3.058    -0.055    29.313     8.879
     4   6 C        2.995    -0.054    29.337     8.885
     5   8 O        1.729    -0.167    16.810     5.536
     6   1 H        0.926     0.057     2.230     2.335
     7   1 H        0.926     0.054     2.272     2.357
     8   1 H        0.927     0.054     2.275     2.358

 Mol. C6AA /au·bohr⁶  :        895.504622
 Mol. C8AA /au·bohr⁸  :      22136.551821
 Mol. α(0) /au        :         47.524764


Wiberg/Mayer (AO) data.
largest (>0.10) Wiberg bond orders for each atom

 ---------------------------------------------------------------------------
     #   Z sym  total        # sym  WBO       # sym  WBO       # sym  WBO
 ---------------------------------------------------------------------------
     1   6 C    2.984 --     4 C    1.604     5 O    1.184     2 C    0.146
     2   6 C    3.848 --     3 C    1.623     5 O    1.087     6 H    0.964
                             1 C    0.146
     3   6 C    3.918 --     2 C    1.623     4 C    1.221     7 H    0.965
     4   6 C    3.902 --     1 C    1.604     3 C    1.221     8 H    0.974
     5   8 O    2.443 --     1 C    1.184     2 C    1.087
     6   1 H    0.994 --     2 C    0.964
     7   1 H    0.989 --     3 C    0.965
     8   1 H    0.997 --     4 C    0.974
 ---------------------------------------------------------------------------

Topologies differ in total number of bonds
Writing topology from bond orders to xtbtopo.mol

molecular dipole:
                 x           y           z       tot (Debye)
 q only:        0.281      -0.347      -0.000
   full:        0.233      -0.447      -0.000       1.281
molecular quadrupole (traceless):
                xx          xy          yy          xz          yz          zz
 q only:        0.973       1.320      -0.221      -0.465       0.576      -0.753
  q+dip:        2.889       0.978      -1.139      -0.385       0.740      -1.750
   full:        1.605       1.019      -0.910      -0.385       0.741      -0.694

           -------------------------------------------------
          |                Geometry Summary                 |
           -------------------------------------------------

      molecular mass/u    :       67.0661708
   center of mass at/Å    :        0.4505060       0.8276270      -0.5848472
  moments of inertia/u·Å² :        0.4689253E+02   0.5440694E+02   0.1012995E+03
rotational constants/cm⁻¹ :        0.3594951E+00   0.3098434E+00   0.1664138E+00

 * 8 selected distances

     #   Z          #   Z                                           value/Å
     2   6 C        3   6 C                                       1.3613061
     1   6 C        4   6 C                                       1.3509762
     3   6 C        4   6 C                                       1.4295793 (max)
     1   6 C        5   8 O                                       1.3220844
     2   6 C        5   8 O                                       1.3551219
     2   6 C        6   1 H                                       1.0716283
     3   6 C        7   1 H                                       1.0713646
     4   6 C        8   1 H                                       1.0685020 (min)

 * 3 distinct bonds (by element types)

   Z      Z             #   av. dist./Å        max./Å        min./Å
   1 H    6 C           3     1.0704983     1.0716283     1.0685020
   6 C    6 C           3     1.3806205     1.4295793     1.3509762
   6 C    8 O           2     1.3386032     1.3551219     1.3220844


optimized geometry written to: xtbopt.xyz


           -------------------------------------------------
          | TOTAL ENERGY              -14.030045666586 Eh   |
          | GRADIENT NORM               0.000344846290 Eh/α |
          | HOMO-LUMO GAP               4.187241096536 eV   |
           -------------------------------------------------

------------------------------------------------------------------------
 * finished run on 2022/11/14 at 22:12:22.026     
------------------------------------------------------------------------
 total:
 * wall-time:     0 d,  0 h,  0 min,  7.087 sec
 *  cpu-time:     0 d,  0 h,  0 min, 36.562 sec
 * ratio c/w:     5.159 speedup
 SCF:
 * wall-time:     0 d,  0 h,  0 min,  1.856 sec
 *  cpu-time:     0 d,  0 h,  0 min,  8.297 sec
 * ratio c/w:     4.471 speedup
 ANC optimizer:
 * wall-time:     0 d,  0 h,  0 min,  5.134 sec
 *  cpu-time:     0 d,  0 h,  0 min, 27.672 sec
 * ratio c/w:     5.390 speedup

