      -----------------------------------------------------------      
     |                   =====================                   |     
     |                           x T B                           |     
     |                   =====================                   |     
     |                         S. Grimme                         |     
     |          Mulliken Center for Theoretical Chemistry        |     
     |                    University of Bonn                     |     
      -----------------------------------------------------------      

   * xtb version 6.5.1 (579679a) compiled by 'ehlert@majestix' on 2022-07-11

   xtb is free software: you can redistribute it and/or modify it under
   the terms of the GNU Lesser General Public License as published by
   the Free Software Foundation, either version 3 of the License, or
   (at your option) any later version.
   
   xtb is distributed in the hope that it will be useful,
   but WITHOUT ANY WARRANTY; without even the implied warranty of
   MERCHANTABILITY or FITNESS FOR A PARTICULAR PURPOSE.  See the
   GNU Lesser General Public License for more details.
   
   Cite this work as:
   * C. Bannwarth, E. Caldeweyher, S. Ehlert, A. Hansen, P. Pracht,
     J. Seibert, S. Spicher, S. Grimme, WIREs Comput. Mol. Sci., 2020, 11,
     e01493. DOI: 10.1002/wcms.1493
   
   for GFN2-xTB:
   * C. Bannwarth, S. Ehlert and S. Grimme., J. Chem. Theory Comput., 2019,
     15, 1652-1671. DOI: 10.1021/acs.jctc.8b01176
   for GFN1-xTB:
   * S. Grimme, C. Bannwarth, P. Shushkov, J. Chem. Theory Comput., 2017,
     13, 1989-2009. DOI: 10.1021/acs.jctc.7b00118
   for GFN0-xTB:
   * P. Pracht, E. Caldeweyher, S. Ehlert, S. Grimme, ChemRxiv, 2019, preprint.
     DOI: 10.26434/chemrxiv.8326202.v1
   for GFN-FF:
   * S. Spicher and S. Grimme, Angew. Chem. Int. Ed., 2020, 59, 15665-15673.
     DOI: 10.1002/anie.202004239
   
   for ALPB and GBSA implicit solvation:
   * S. Ehlert, M. Stahn, S. Spicher, S. Grimme, J. Chem. Theory Comput.,
     2021, 17, 4250-4261. DOI: 10.1021/acs.jctc.1c00471
   
   for DFT-D4:
   * E. Caldeweyher, C. Bannwarth and S. Grimme, J. Chem. Phys., 2017,
     147, 034112. DOI: 10.1063/1.4993215
   * E. Caldeweyher, S. Ehlert, A. Hansen, H. Neugebauer, S. Spicher,
     C. Bannwarth and S. Grimme, J. Chem. Phys., 2019, 150, 154122.
     DOI: 10.1063/1.5090222
   * E. Caldeweyher, J.-M. Mewes, S. Ehlert and S. Grimme, Phys. Chem. Chem. Phys.
     2020, 22, 8499-8512. DOI: 10.1039/D0CP00502A
   
   for sTDA-xTB:
   * S. Grimme and C. Bannwarth, J. Chem. Phys., 2016, 145, 054103.
     DOI: 10.1063/1.4959605
   
   in the mass-spec context:
   * V. Asgeirsson, C. Bauer and S. Grimme, Chem. Sci., 2017, 8, 4879.
     DOI: 10.1039/c7sc00601b
   * J. Koopman and S. Grimme, ACS Omega 2019, 4, 12, 15120-15133.
     DOI: 10.1021/acsomega.9b02011
   
   for metadynamics refer to:
   * S. Grimme, J. Chem. Theory Comput., 2019, 155, 2847-2862
     DOI: 10.1021/acs.jctc.9b00143
   
   for SPH calculations refer to:
   * S. Spicher and S. Grimme, J. Chem. Theory Comput., 2021, 17, 1701-1714
     DOI: 10.1021/acs.jctc.0c01306
   
   with help from (in alphabetical order)
   P. Atkinson, C. Bannwarth, F. Bohle, G. Brandenburg, E. Caldeweyher
   M. Checinski, S. Dohm, S. Ehlert, S. Ehrlich, I. Gerasimov, C. Hölzer
   A. Katbashev, J. Koopman, C. Lavigne, S. Lehtola, F. März, M. Müller,
   F. Musil, H. Neugebauer, J. Pisarek, C. Plett, P. Pracht, F. Pultar,
   J. Seibert, P. Shushkov, S. Spicher, M. Stahn, M. Steiner, T. Strunk,
   J. Stückrath, T. Rose, and J. Unsleber
   
 * started run on 2022/10/30 at 20:48:28.386     

           -------------------------------------------------
          |                Calculation Setup                |
           -------------------------------------------------

          program call               : xtb [Ir+3]_1228758-57-3_SP1.xyz --gfn2 --chrg 0 --uhf 1 --alpb ch2cl2 --opt 1
          hostname                   : cmp002
          coordinate file            : [Ir+3]_1228758-57-3_SP1.xyz
          omp threads                :                     8

   ID    Z sym.   atoms
    1    6 C      1, 3-8, 10-13, 16-21, 23-27, 29, 30
    2    8 O      2, 22, 28, 31
    3   15 P      9, 15
    4   77 Ir     14
    5    1 H      32-63

           -------------------------------------------------
          |                 G F N 2 - x T B                 |
           -------------------------------------------------

        Reference                      10.1021/acs.jctc.8b01176
      * Hamiltonian:
        H0-scaling (s, p, d)           1.850000    2.230000    2.230000
        zeta-weighting                 0.500000
      * Dispersion:
        s8                             2.700000
        a1                             0.520000
        a2                             5.000000
        s9                             5.000000
      * Repulsion:
        kExp                           1.500000    1.000000
        rExp                           1.000000
      * Coulomb:
        alpha                          2.000000
        third order                    shell-resolved
        anisotropic                    true
        a3                             3.000000
        a5                             4.000000
        cn-shift                       1.200000
        cn-exp                         4.000000
        max-rad                        5.000000

      * Solvation model:               ALPB
        Solvent                        ch2cl2
        Parameter file                 internal GFN2-xTB/ALPB
        Dielectric constant                8.9300E+00
        Reference state                gsolv [1 M gas/solution]
        Free energy shift                  4.1487E-03 Eh       2.6033E+00 kcal/mol
        Temperature                        2.9815E+02 K
        Density                            1.3300E+00 kg/L
        Solvent mass                       8.4930E+01 g/mol
        Interaction kernel             P16
        Born radius scaling (c1)           1.5691E+00
        Born radii integrator          GBOBC
        Born offset                        0.0000E+00 a0       0.0000E+00 AA
        H-bond correction              false
        Ion screening                  false
        Surface tension                    1.0000E-05 Eh       1.5569E+01 dyn/cm
        Grid points                               230 per atom

          ...................................................
          :                      SETUP                      :
          :.................................................:
          :  # basis functions                 174          :
          :  # atomic orbitals                 171          :
          :  # shells                           97          :
          :  # electrons                       171          :
          :  max. iterations                   250          :
          :  Hamiltonian                  GFN2-xTB          :
          :  restarted?                      false          :
          :  GBSA solvation                   true          :
          :  PC potential                    false          :
          :  electronic temp.          300.0000000     K    :
          :  accuracy                    1.0000000          :
          :  -> integral cutoff          0.2500000E+02      :
          :  -> integral neglect         0.1000000E-07      :
          :  -> SCF convergence          0.1000000E-05 Eh   :
          :  -> wf. convergence          0.1000000E-03 e    :
          :  Broyden damping             0.4000000          :
          ...................................................

 iter      E             dE          RMSdq      gap      omega  full diag
   1    -92.7962638 -0.927963E+02  0.621E+00    0.88       0.0  T
   2    -81.3990721  0.113972E+02  0.109E+01    0.17       1.0  T
   3    -92.1820502 -0.107830E+02  0.492E+00    0.33       1.0  T
   4    -92.9061602 -0.724110E+00  0.378E+00    1.27       1.0  T
   5    -92.7476506  0.158510E+00  0.341E+00    0.28       1.0  T
   6    -93.3631842 -0.615534E+00  0.235E+00    1.15       1.0  T
   7    -93.4865451 -0.123361E+00  0.191E+00    1.12       1.0  T
   8    -93.5495674 -0.630223E-01  0.163E+00    1.11       1.0  T
   9    -93.6970181 -0.147451E+00  0.826E-01    1.04       1.0  T
  10    -93.7164381 -0.194200E-01  0.622E-01    0.88       1.0  T
  11    -93.6488758  0.675622E-01  0.135E+00    0.73       1.0  T
  12    -93.6423653  0.651047E-02  0.166E+00    0.52       1.0  T
  13    -93.7113429 -0.689776E-01  0.756E-01    0.72       1.0  T
  14    -93.6954080  0.159350E-01  0.998E-01    0.71       1.0  T
  15    -93.7160851 -0.206771E-01  0.526E-01    0.71       1.0  T
  16    -93.7228261 -0.674106E-02  0.717E-02    0.64       1.0  T
  17    -93.7217487  0.107739E-02  0.217E-01    0.67       1.0  T
  18    -93.7229123 -0.116361E-02  0.656E-02    0.66       1.0  T
  19    -93.7229101  0.225147E-05  0.578E-02    0.65       1.0  T
  20    -93.7224275  0.482581E-03  0.146E-01    0.66       1.0  T
  21    -93.7229534 -0.525888E-03  0.332E-02    0.66       1.0  T
  22    -93.7229875 -0.340700E-04  0.120E-02    0.66       1.1  T
  23    -93.7229713  0.161447E-04  0.290E-02    0.66       1.0  T
  24    -93.7229893 -0.179366E-04  0.467E-03    0.66       2.7  T
  25    -93.7229885  0.734942E-06  0.649E-03    0.66       1.9  T
  26    -93.7229896 -0.109073E-05  0.544E-04    0.66      23.2  T
  27    -93.7229894  0.198212E-06  0.279E-03    0.66       4.5  T
  28    -93.7229896 -0.201620E-06  0.292E-04    0.66      43.1  T
  29    -93.7229896  0.249477E-07  0.101E-03    0.66      12.5  T
  30    -93.7229896 -0.137484E-07  0.712E-04    0.66      17.7  T

   *** convergence criteria satisfied after 30 iterations ***

         #    Occupation            Energy/Eh            Energy/eV
      -------------------------------------------------------------
         1        2.0000           -0.7506836             -20.4271
       ...           ...                  ...                  ...
        80        2.0000           -0.3327431              -9.0544
        81        2.0000           -0.3311486              -9.0110
        82        2.0000           -0.3177936              -8.6476
        83        2.0000           -0.3133208              -8.5259
        84        2.0000           -0.3091196              -8.4116
        85        1.8586           -0.2960304              -8.0554
        86        1.1414           -0.2926028              -7.9621 (HOMO)
        87        0.0000           -0.2683016              -7.3009 (LUMO)
        88                         -0.2555138              -6.9529
        89                         -0.2510598              -6.8317
        90                         -0.2439240              -6.6375
        91                         -0.2290856              -6.2337
       ...                                ...                  ...
       171                          8.5344509             232.2342
      -------------------------------------------------------------
                  HL-Gap            0.0243012 Eh            0.6613 eV
             Fermi-level           -0.2873780 Eh           -7.8200 eV

 SCC (total)                   0 d,  0 h,  0 min,  0.188 sec
 SCC setup                      ...        0 min,  0.003 sec (  1.480%)
 Dispersion                     ...        0 min,  0.001 sec (  0.667%)
 classical contributions        ...        0 min,  0.000 sec (  0.082%)
 integral evaluation            ...        0 min,  0.012 sec (  6.398%)
 iterations                     ...        0 min,  0.159 sec ( 84.478%)
 molecular gradient             ...        0 min,  0.012 sec (  6.358%)
 printout                       ...        0 min,  0.001 sec (  0.517%)

         :::::::::::::::::::::::::::::::::::::::::::::::::::::
         ::                     SUMMARY                     ::
         :::::::::::::::::::::::::::::::::::::::::::::::::::::
         :: total energy             -90.816602425506 Eh    ::
         :: total w/o Gsasa/hb       -90.784391938851 Eh    ::
         :: gradient norm              5.989781666336 Eh/a0 ::
         :: HOMO-LUMO gap              0.661269065492 eV    ::
         ::.................................................::
         :: SCC energy               -93.722989603237 Eh    ::
         :: -> isotropic ES            0.120155630649 Eh    ::
         :: -> anisotropic ES          0.002623924796 Eh    ::
         :: -> anisotropic XC          0.028582832486 Eh    ::
         :: -> dispersion             -0.099337109262 Eh    ::
         :: -> Gsolv                  -0.053460556552 Eh    ::
         ::    -> Gelec               -0.021250069897 Eh    ::
         ::    -> Gsasa               -0.036359184016 Eh    ::
         ::    -> Ghb                  0.000000000000 Eh    ::
         ::    -> Gshift               0.004148697361 Eh    ::
         :: repulsion energy           2.903122533308 Eh    ::
         :: add. restraining           0.000000000000 Eh    ::
         :: total charge               0.000000000005 e     ::
         :::::::::::::::::::::::::::::::::::::::::::::::::::::

      ----------------------------------------------------------- 
     |                   =====================                   |
     |                        A N C O P T                        |
     |                   =====================                   |
     |               Approximate Normal Coordinate               |
     |                Rational Function Optimizer                |
      ----------------------------------------------------------- 

          ...................................................
          :                      SETUP                      :
          :.................................................:
          :   optimization level             tight          :
          :   max. optcycles                   315          :
          :   ANC micro-cycles                  20          :
          :   degrees of freedom               183          :
          :.................................................:
          :   RF solver                   davidson          :
          :   write xtbopt.log                true          :
          :   linear?                        false          :
          :   energy convergence         0.1000000E-05 Eh   :
          :   grad. convergence          0.8000000E-03 Eh/α :
          :   maximium RF displ.         1.0000000          :
          :   Hlow (freq-cutoff)         0.1000000E-01      :
          :   Hmax (freq-cutoff)         5.0000000          :
          :   S6 in model hess.         20.0000000          :
          ...................................................

generating ANC from model Hessian ...
Using Lindh-Hessian (1995)
 Shifting diagonal of input Hessian by   9.756415110115107E-003
 Lowest  eigenvalues of input Hessian
    0.000000    0.000000    0.000000    0.000000    0.000000    0.000000
    0.010000    0.010257    0.010492    0.010646    0.010927    0.011366
    0.011394    0.011830    0.012270    0.013047    0.013597    0.013966
 Highest eigenvalues
    2.434381    2.968929    3.221053    3.940885    7.210836    7.954590
 

........................................................................
.............................. CYCLE    1 ..............................
........................................................................
   1    -93.7229896 -0.937230E+02  0.290E-05    0.66       0.0  T
   2    -93.7229896  0.447382E-08  0.372E-04    0.66      33.9  T
   3    -93.7229896 -0.448888E-08  0.171E-05    0.66     736.5  T
     SCC iter.                  ...        0 min,  0.021 sec
     gradient                   ...        0 min,  0.012 sec
 * total energy  :   -90.8166024 Eh     change       -0.1279035E-07 Eh
   gradient norm :     5.9897837 Eh/α   predicted     0.0000000E+00 (-100.00%)
   displ. norm   :     0.6865410 α      lambda       -0.4078060E+01
   maximum displ.:     0.6132233 α      in ANC's #182, #183, #176, ...

........................................................................
.............................. CYCLE    2 ..............................
........................................................................
   1    -93.7147438 -0.937147E+02  0.161E+00    0.76       0.0  T
   2    -93.0275400  0.687204E+00  0.309E+00    0.58       1.0  T
   3    -93.7875459 -0.760006E+00  0.144E+00    0.91       1.0  T
   4    -93.8013220 -0.137761E-01  0.916E-01    0.33       1.0  T
   5    -93.8150080 -0.136860E-01  0.481E-01    0.51       1.0  T
   6    -93.6544321  0.160576E+00  0.241E+00    0.36       1.0  T
   7    -93.8210950 -0.166663E+00  0.344E-01    0.41       1.0  T
   8    -93.8161571  0.493788E-02  0.450E-01    0.60       1.0  T
   9    -93.8192301 -0.307298E-02  0.370E-01    0.51       1.0  T
  10    -93.8204973 -0.126717E-02  0.324E-01    0.50       1.0  T
  11    -93.8218004 -0.130316E-02  0.232E-01    0.51       1.0  T
  12    -93.8224525 -0.652034E-03  0.148E-01    0.51       1.0  T
  13    -93.8227973 -0.344858E-03  0.791E-02    0.52       1.0  T
  14    -93.8228356 -0.382958E-04  0.501E-02    0.52       1.0  T
  15    -93.8228990 -0.634038E-04  0.141E-02    0.52       1.0  T
  16    -93.8229028 -0.378960E-05  0.641E-03    0.52       2.0  T
  17    -93.8229031 -0.305293E-06  0.438E-03    0.52       2.9  T
  18    -93.8229036 -0.529263E-06  0.783E-04    0.52      16.1  T
  19    -93.8229036  0.811494E-07  0.185E-03    0.52       6.8  T
  20    -93.8229036 -0.638454E-07  0.102E-03    0.52      12.4  T
  21    -93.8229037 -0.325224E-07  0.155E-04    0.52      81.5  T
     SCC iter.                  ...        0 min,  0.102 sec
     gradient                   ...        0 min,  0.012 sec
 * total energy  :   -92.2182378 Eh     change       -0.1401635E+01 Eh
   gradient norm :     0.9258098 Eh/α   predicted    -0.3000117E+01 ( 114.04%)
   displ. norm   :     0.5633802 α      lambda       -0.4107781E+00
   maximum displ.:     0.2579603 α      in ANC's #105, #176, #168, ...

........................................................................
.............................. CYCLE    3 ..............................
........................................................................
   1    -93.6598997 -0.936599E+02  0.286E+00    0.73       0.0  T
   2    -92.6050770  0.105482E+01  0.398E+00    0.73       1.0  T
   3    -93.7331312 -0.112805E+01  0.221E+00    1.46       1.0  T
   4    -93.7595372 -0.264060E-01  0.140E+00    0.38       1.0  T
   5    -93.8158007 -0.562635E-01  0.106E+00    0.19       1.0  T
   6    -93.8518781 -0.360773E-01  0.734E-01    0.48       1.0  T
   7    -93.8561853 -0.430723E-02  0.470E-01    0.54       1.0  T
   8    -93.8621556 -0.597033E-02  0.399E-01    0.57       1.0  T
   9    -93.8672792 -0.512362E-02  0.116E-01    0.61       1.0  T
  10    -93.8678123 -0.533043E-03  0.276E-02    0.62       1.0  T
  11    -93.8678292 -0.169117E-04  0.185E-02    0.63       1.0  T
  12    -93.8678337 -0.454683E-05  0.125E-02    0.63       1.0  T
  13    -93.8678362 -0.242157E-05  0.671E-03    0.62       1.9  T
  14    -93.8678375 -0.133128E-05  0.322E-03    0.62       3.9  T
  15    -93.8678352  0.232846E-05  0.984E-03    0.63       1.3  T
  16    -93.8678373 -0.212659E-05  0.336E-03    0.62       3.7  T
  17    -93.8678376 -0.283977E-06  0.153E-03    0.62       8.2  T
  18    -93.8678376 -0.594904E-07  0.551E-04    0.62      22.9  T
  19    -93.8678376  0.501564E-07  0.138E-03    0.62       9.1  T
  20    -93.8678376 -0.377664E-07  0.786E-04    0.62      16.0  T
     SCC iter.                  ...        0 min,  0.089 sec
     gradient                   ...        0 min,  0.011 sec
 * total energy  :   -92.5019347 Eh     change       -0.2836969E+00 Eh
   gradient norm :     0.4258134 Eh/α   predicted    -0.2705791E+00 (  -4.62%)
   displ. norm   :     0.5566543 α      lambda       -0.1702162E+00
   maximum displ.:     0.1406502 α      in ANC's #53, #63, #176, ...

........................................................................
.............................. CYCLE    4 ..............................
........................................................................
   1    -93.7530860 -0.937531E+02  0.226E+00    0.85       0.0  T
   2    -92.7618912  0.991195E+00  0.375E+00    0.75       1.0  T
   3    -93.8837615 -0.112187E+01  0.202E+00    1.47       1.0  T
   4    -93.8575893  0.261722E-01  0.122E+00    0.46       1.0  T
   5    -93.8986239 -0.410345E-01  0.794E-01    0.39       1.0  T
   6    -93.9095532 -0.109294E-01  0.573E-01    0.61       1.0  T
   7    -93.8981842  0.113691E-01  0.841E-01    0.71       1.0  T
   8    -93.9198109 -0.216267E-01  0.336E-01    0.69       1.0  T
   9    -93.9196308  0.180039E-03  0.299E-01    0.76       1.0  T
  10    -93.9229791 -0.334830E-02  0.117E-01    0.76       1.0  T
  11    -93.9233730 -0.393909E-03  0.148E-02    0.78       1.0  T
  12    -93.9233761 -0.306756E-05  0.107E-02    0.78       1.2  T
  13    -93.9233775 -0.134296E-05  0.914E-03    0.78       1.4  T
  14    -93.9233782 -0.752829E-06  0.678E-03    0.78       1.9  T
  15    -93.9233791 -0.893720E-06  0.419E-03    0.78       3.0  T
  16    -93.9233797 -0.548979E-06  0.169E-03    0.78       7.5  T
  17    -93.9233797 -0.649902E-07  0.742E-04    0.78      17.0  T
  18    -93.9233797 -0.143788E-07  0.489E-04    0.78      25.8  T
     SCC iter.                  ...        0 min,  0.092 sec
     gradient                   ...        0 min,  0.011 sec
 * total energy  :   -92.6307494 Eh     change       -0.1288147E+00 Eh
   gradient norm :     0.2241436 Eh/α   predicted    -0.1114802E+00 ( -13.46%)
   displ. norm   :     0.6788068 α      lambda       -0.1067657E+00
   maximum displ.:     0.2057643 α      in ANC's #53, #105, #63, ...

........................................................................
.............................. CYCLE    5 ..............................
........................................................................
   1    -93.8243498 -0.938243E+02  0.220E+00    1.02       0.0  T
   2    -92.9161774  0.908172E+00  0.344E+00    0.70       1.0  T
   3    -93.7435233 -0.827346E+00  0.228E+00    1.53       1.0  T
   4    -93.8371060 -0.935827E-01  0.130E+00    0.80       1.0  T
   5    -93.8934869 -0.563809E-01  0.101E+00    0.60       1.0  T
   6    -93.9231104 -0.296235E-01  0.694E-01    0.81       1.0  T
   7    -93.9400082 -0.168977E-01  0.321E-01    0.95       1.0  T
   8    -93.9399459  0.622813E-04  0.376E-01    1.00       1.0  T
   9    -93.9442362 -0.429035E-02  0.998E-02    1.05       1.0  T
  10    -93.9441102  0.125995E-03  0.842E-02    1.02       1.0  T
  11    -93.9441527 -0.425165E-04  0.995E-02    1.03       1.0  T
  12    -93.9443937 -0.240996E-03  0.360E-02    1.02       1.0  T
  13    -93.9444480 -0.542257E-04  0.119E-02    1.02       1.1  T
  14    -93.9444508 -0.284790E-05  0.207E-03    1.02       6.1  T
  15    -93.9444509 -0.605444E-07  0.111E-03    1.02      11.4  T
  16    -93.9444505  0.357409E-06  0.365E-03    1.02       3.5  T
  17    -93.9444509 -0.350757E-06  0.121E-03    1.02      10.4  T
  18    -93.9444508  0.890345E-07  0.203E-03    1.02       6.2  T
  19    -93.9444509 -0.130599E-06  0.315E-04    1.02      40.0  T
  20    -93.9444509 -0.406193E-08  0.406E-05    1.02     310.5  T
     SCC iter.                  ...        0 min,  0.089 sec
     gradient                   ...        0 min,  0.011 sec
 * total energy  :   -92.7072751 Eh     change       -0.7652562E-01 Eh
   gradient norm :     0.1266103 Eh/α   predicted    -0.7798055E-01 (   1.90%)
   displ. norm   :     0.6688469 α      lambda       -0.4573009E-01
   maximum displ.:     0.2215745 α      in ANC's #41, #53, #44, ...

........................................................................
.............................. CYCLE    6 ..............................
........................................................................
   1    -93.9008835 -0.939009E+02  0.140E+00    1.23       0.0  T
   2    -93.3223347  0.578549E+00  0.270E+00    0.13       1.0  T
   3    -93.9278670 -0.605532E+00  0.132E+00    1.62       1.0  T
   4    -93.9039326  0.239344E-01  0.103E+00    1.05       1.0  T
   5    -93.9321711 -0.282385E-01  0.802E-01    1.01       1.0  T
   6    -93.9527250 -0.205539E-01  0.455E-01    1.18       1.0  T
   7    -93.9028011  0.499239E-01  0.132E+00    1.16       1.0  T
   8    -93.9589166 -0.561156E-01  0.336E-01    1.15       1.0  T
   9    -93.9549265  0.399016E-02  0.446E-01    1.21       1.0  T
  10    -93.9572754 -0.234894E-02  0.365E-01    1.22       1.0  T
  11    -93.9613591 -0.408364E-02  0.132E-01    1.24       1.0  T
  12    -93.9611976  0.161498E-03  0.146E-01    1.24       1.0  T
  13    -93.9618401 -0.642546E-03  0.397E-03    1.24       3.2  T
  14    -93.9618329  0.720241E-05  0.164E-02    1.24       1.0  T
  15    -93.9618403 -0.738277E-05  0.206E-03    1.24       6.1  T
  16    -93.9618386  0.167663E-05  0.824E-03    1.24       1.5  T
  17    -93.9618384  0.187187E-06  0.844E-03    1.24       1.5  T
  18    -93.9618404 -0.201918E-05  0.111E-03    1.24      11.4  T
  19    -93.9618405 -0.259594E-07  0.662E-04    1.24      19.0  T
  20    -93.9618405 -0.661569E-08  0.731E-04    1.24      17.2  T
     SCC iter.                  ...        0 min,  0.102 sec
     gradient                   ...        0 min,  0.011 sec
 * total energy  :   -92.7402564 Eh     change       -0.3298130E-01 Eh
   gradient norm :     0.1082885 Eh/α   predicted    -0.3309397E-01 (   0.34%)
   displ. norm   :     0.6680114 α      lambda       -0.3103618E-01
   maximum displ.:     0.2267570 α      in ANC's #41, #44, #39, ...

........................................................................
.............................. CYCLE    7 ..............................
........................................................................
   1    -93.9477470 -0.939477E+02  0.884E-01    1.31       0.0  T
   2    -93.8083128  0.139434E+00  0.155E+00    0.44       1.0  T
   3    -93.9672204 -0.158908E+00  0.762E-01    1.22       1.0  T
   4    -93.9383858  0.288346E-01  0.766E-01    1.10       1.0  T
   5    -93.9689602 -0.305743E-01  0.220E-01    1.24       1.0  T
   6    -93.9284873  0.404729E-01  0.109E+00    1.25       1.0  T
   7    -93.9642624 -0.357750E-01  0.475E-01    1.24       1.0  T
   8    -93.9606493  0.361305E-02  0.548E-01    1.21       1.0  T
   9    -93.9654942 -0.484490E-02  0.387E-01    1.23       1.0  T
  10    -93.9692461 -0.375183E-02  0.153E-01    1.24       1.0  T
  11    -93.9698629 -0.616865E-03  0.607E-02    1.25       1.0  T
  12    -93.9699743 -0.111352E-03  0.323E-03    1.25       3.9  T
  13    -93.9699742  0.976646E-07  0.292E-03    1.25       4.3  T
  14    -93.9699717  0.252139E-05  0.835E-03    1.25       1.5  T
  15    -93.9699743 -0.268718E-05  0.781E-04    1.25      16.1  T
  16    -93.9699742  0.107615E-06  0.180E-03    1.25       7.0  T
  17    -93.9699743 -0.920564E-07  0.111E-03    1.25      11.3  T
  18    -93.9699743 -0.205844E-07  0.348E-04    1.25      36.3  T
  19    -93.9699743  0.203798E-08  0.422E-04    1.25      29.8  T
     SCC iter.                  ...        0 min,  0.090 sec
     gradient                   ...        0 min,  0.012 sec
 * total energy  :   -92.7629417 Eh     change       -0.2268530E-01 Eh
   gradient norm :     0.0849869 Eh/α   predicted    -0.2244288E-01 (  -1.07%)
   displ. norm   :     0.6957319 α      lambda       -0.2279114E-01
   maximum displ.:     0.2468501 α      in ANC's #41, #44, #21, ...

........................................................................
.............................. CYCLE    8 ..............................
........................................................................
   1    -93.9736419 -0.939736E+02  0.701E-01    1.33       0.0  T
   2    -93.8657508  0.107891E+00  0.135E+00    0.69       1.0  T
   3    -93.9822073 -0.116457E+00  0.439E-01    1.32       1.0  T
   4    -93.9565244  0.256830E-01  0.762E-01    1.20       1.0  T
   5    -93.9758025 -0.192782E-01  0.499E-01    1.30       1.0  T
   6    -93.8771133  0.986892E-01  0.193E+00    1.30       1.0  T
   7    -93.9867685 -0.109655E+00  0.112E-01    1.35       1.0  T
   8    -93.9726515  0.141170E-01  0.693E-01    1.27       1.0  T
   9    -93.9782664 -0.561483E-02  0.551E-01    1.30       1.0  T
  10    -93.9840977 -0.583136E-02  0.332E-01    1.32       1.0  T
  11    -93.9867173 -0.261964E-02  0.132E-01    1.33       1.0  T
  12    -93.9869648 -0.247447E-03  0.788E-02    1.33       1.0  T
  13    -93.9871150 -0.150219E-03  0.557E-03    1.33       2.3  T
  14    -93.9871109  0.412317E-05  0.183E-02    1.33       1.0  T
  15    -93.9871165 -0.561561E-05  0.395E-03    1.33       3.2  T
  16    -93.9871161  0.380153E-06  0.435E-03    1.33       2.9  T
  17    -93.9871166 -0.427471E-06  0.337E-04    1.33      37.4  T
  18    -93.9871165  0.192764E-07  0.664E-04    1.33      19.0  T
     SCC iter.                  ...        0 min,  0.089 sec
     gradient                   ...        0 min,  0.011 sec
 * total energy  :   -92.7801580 Eh     change       -0.1721629E-01 Eh
   gradient norm :     0.0629350 Eh/α   predicted    -0.1691152E-01 (  -1.77%)
   displ. norm   :     0.6768829 α      lambda       -0.1473892E-01
   maximum displ.:     0.2043882 α      in ANC's #41, #8, #21, ...

........................................................................
.............................. CYCLE    9 ..............................
........................................................................
   1    -93.9918899 -0.939919E+02  0.457E-01    1.35       0.0  T
   2    -93.9176344  0.742556E-01  0.109E+00    0.95       1.0  T
   3    -93.9955029 -0.778685E-01  0.221E-01    1.36       1.0  T
   4    -93.9747425  0.207604E-01  0.678E-01    1.27       1.0  T
   5    -93.9805343 -0.579180E-02  0.581E-01    1.30       1.0  T
   6    -93.9301520  0.503823E-01  0.156E+00    1.34       1.0  T
   7    -93.9973908 -0.672388E-01  0.157E-01    1.37       1.0  T
   8    -93.9913603  0.603046E-02  0.467E-01    1.33       1.0  T
   9    -93.9964459 -0.508555E-02  0.215E-01    1.35       1.0  T
  10    -93.9974980 -0.105218E-02  0.872E-02    1.36       1.0  T
  11    -93.9975654 -0.673083E-04  0.664E-02    1.35       1.0  T
  12    -93.9976989 -0.133537E-03  0.531E-03    1.36       2.4  T
  13    -93.9976973  0.159988E-05  0.104E-02    1.36       1.2  T
  14    -93.9976988 -0.150885E-05  0.415E-03    1.36       3.0  T
  15    -93.9976971  0.174658E-05  0.879E-03    1.36       1.4  T
  16    -93.9976993 -0.222763E-05  0.370E-04    1.36      34.1  T
  17    -93.9976993 -0.401909E-08  0.128E-04    1.36      98.2  T
  18    -93.9976993 -0.166551E-09  0.120E-04    1.36     105.2  T
     SCC iter.                  ...        0 min,  0.080 sec
     gradient                   ...        0 min,  0.012 sec
 * total energy  :   -92.7919842 Eh     change       -0.1182626E-01 Eh
   gradient norm :     0.0462406 Eh/α   predicted    -0.1074593E-01 (  -9.14%)
   displ. norm   :     0.6917268 α      lambda       -0.1057456E-01
   maximum displ.:     0.2153413 α      in ANC's #8, #2, #6, ...

........................................................................
.............................. CYCLE   10 ..............................
........................................................................
   1    -93.9968862 -0.939969E+02  0.405E-01    1.37       0.0  T
   2    -93.9294104  0.674758E-01  0.104E+00    0.98       1.0  T
   3    -93.9980998 -0.686894E-01  0.213E-01    1.38       1.0  T
   4    -93.9780982  0.200017E-01  0.699E-01    1.29       1.0  T
   5    -93.9830225 -0.492433E-02  0.619E-01    1.31       1.0  T
   6    -93.9917836 -0.876107E-02  0.644E-01    1.38       1.0  T
   7    -94.0013325 -0.954896E-02  0.107E-01    1.38       1.0  T
   8    -93.9967742  0.455833E-02  0.396E-01    1.35       1.0  T
   9    -94.0011647 -0.439048E-02  0.119E-01    1.37       1.0  T
  10    -94.0015545 -0.389795E-03  0.194E-02    1.37       1.0  T
  11    -94.0015588 -0.436015E-05  0.198E-02    1.37       1.0  T
  12    -94.0015640 -0.512756E-05  0.144E-02    1.37       1.0  T
  13    -94.0015698 -0.580541E-05  0.823E-03    1.37       1.5  T
  14    -94.0015707 -0.895939E-06  0.534E-03    1.37       2.4  T
  15    -94.0015713 -0.584654E-06  0.296E-03    1.37       4.3  T
  16    -94.0015715 -0.223547E-06  0.347E-04    1.37      36.3  T
  17    -94.0015715 -0.107620E-08  0.198E-04    1.37      63.7  T
     SCC iter.                  ...        0 min,  0.085 sec
     gradient                   ...        0 min,  0.011 sec
 * total energy  :   -92.8005842 Eh     change       -0.8599990E-02 Eh
   gradient norm :     0.0366083 Eh/α   predicted    -0.7817190E-02 (  -9.10%)
   displ. norm   :     0.6957977 α      lambda       -0.7874213E-02
   maximum displ.:     0.2301392 α      in ANC's #2, #8, #6, ...

........................................................................
.............................. CYCLE   11 ..............................
........................................................................
   1    -93.9993889 -0.939994E+02  0.400E-01    1.40       0.0  T
   2    -93.9302192  0.691697E-01  0.106E+00    0.96       1.0  T
   3    -94.0035501 -0.733308E-01  0.202E-01    1.39       1.0  T
   4    -93.9843963  0.191538E-01  0.650E-01    1.32       1.0  T
   5    -93.9976141 -0.132178E-01  0.376E-01    1.37       1.0  T
   6    -93.9460099  0.516042E-01  0.143E+00    1.40       1.0  T
   7    -94.0042069 -0.581971E-01  0.905E-02    1.40       1.0  T
   8    -94.0011200  0.308689E-02  0.337E-01    1.38       1.0  T
   9    -94.0040909 -0.297082E-02  0.110E-01    1.39       1.0  T
  10    -94.0042167 -0.125819E-03  0.744E-02    1.39       1.0  T
  11    -94.0043426 -0.125880E-03  0.319E-02    1.39       1.0  T
  12    -94.0043670 -0.244090E-04  0.114E-02    1.39       1.1  T
  13    -94.0043667  0.222892E-06  0.149E-02    1.40       1.0  T
  14    -94.0043720 -0.522608E-05  0.228E-03    1.39       5.5  T
  15    -94.0043722 -0.211134E-06  0.103E-03    1.39      12.2  T
  16    -94.0043722  0.111067E-07  0.110E-03    1.39      11.5  T
  17    -94.0043722  0.313106E-08  0.109E-03    1.39      11.5  T
  18    -94.0043722 -0.401892E-07  0.202E-04    1.39      62.4  T
  19    -94.0043722 -0.291806E-09  0.121E-04    1.39     104.5  T
     SCC iter.                  ...        0 min,  0.084 sec
     gradient                   ...        0 min,  0.012 sec
 * total energy  :   -92.8070345 Eh     change       -0.6450336E-02 Eh
   gradient norm :     0.0295787 Eh/α   predicted    -0.5843199E-02 (  -9.41%)
   displ. norm   :     0.6974368 α      lambda       -0.6151917E-02
   maximum displ.:     0.2607406 α      in ANC's #2, #8, #6, ...

........................................................................
.............................. CYCLE   12 ..............................
........................................................................
   1    -93.9986544 -0.939987E+02  0.401E-01    1.42       0.0  T
   2    -93.9298470  0.688074E-01  0.106E+00    0.94       1.0  T
   3    -94.0033547 -0.735077E-01  0.235E-01    1.41       1.0  T
   4    -93.9858545  0.175002E-01  0.635E-01    1.35       1.0  T
   5    -94.0030268 -0.171722E-01  0.143E-01    1.41       1.0  T
   6    -93.9913481  0.116787E-01  0.655E-01    1.43       1.0  T
   7    -94.0037713 -0.124233E-01  0.625E-02    1.42       1.0  T
   8    -94.0025377  0.123368E-02  0.209E-01    1.40       1.0  T
   9    -94.0038657 -0.132805E-02  0.243E-02    1.42       1.0  T
  10    -94.0038529  0.128049E-04  0.335E-02    1.41       1.0  T
  11    -94.0038870 -0.340572E-04  0.814E-03    1.42       1.5  T
  12    -94.0038888 -0.187438E-05  0.337E-03    1.41       3.7  T
  13    -94.0038893 -0.467407E-06  0.653E-04    1.42      19.3  T
  14    -94.0038893 -0.308896E-08  0.343E-04    1.42      36.8  T
     SCC iter.                  ...        0 min,  0.074 sec
     gradient                   ...        0 min,  0.011 sec
 * total energy  :   -92.8119706 Eh     change       -0.4936074E-02 Eh
   gradient norm :     0.0244729 Eh/α   predicted    -0.4572166E-02 (  -7.37%)
   displ. norm   :     0.6839588 α      lambda       -0.4663965E-02
   maximum displ.:     0.2886987 α      in ANC's #2, #7, #6, ...

........................................................................
.............................. CYCLE   13 ..............................
........................................................................
   1    -93.9995599 -0.939996E+02  0.386E-01    1.43       0.0  T
   2    -93.9327459  0.668140E-01  0.104E+00    0.93       1.0  T
   3    -94.0043456 -0.715996E-01  0.258E-01    1.42       1.0  T
   4    -93.9890644  0.152811E-01  0.604E-01    1.36       1.0  T
   5    -94.0044315 -0.153671E-01  0.121E-01    1.43       1.0  T
   6    -94.0042058  0.225669E-03  0.124E-01    1.42       1.0  T
   7    -94.0043241 -0.118262E-03  0.961E-02    1.42       1.0  T
   8    -94.0046112 -0.287101E-03  0.285E-02    1.42       1.0  T
   9    -94.0046353 -0.241032E-04  0.728E-03    1.43       1.7  T
  10    -94.0045250  0.110317E-03  0.572E-02    1.42       1.0  T
  11    -94.0046316 -0.106647E-03  0.114E-02    1.42       1.1  T
  12    -94.0046359 -0.427262E-05  0.408E-03    1.43       3.1  T
  13    -94.0046363 -0.342099E-06  0.488E-04    1.43      25.8  T
  14    -94.0046363  0.404984E-08  0.748E-04    1.42      16.8  T
     SCC iter.                  ...        0 min,  0.074 sec
     gradient                   ...        0 min,  0.011 sec
 * total energy  :   -92.8154913 Eh     change       -0.3520695E-02 Eh
   gradient norm :     0.0219546 Eh/α   predicted    -0.3422891E-02 (  -2.78%)
   displ. norm   :     0.6155799 α      lambda       -0.3127844E-02
   maximum displ.:     0.2961228 α      in ANC's #2, #7, #6, ...

........................................................................
.............................. CYCLE   14 ..............................
........................................................................
   1    -94.0021771 -0.940022E+02  0.312E-01    1.45       0.0  T
   2    -93.9483552  0.538219E-01  0.932E-01    1.03       1.0  T
   3    -94.0039986 -0.556434E-01  0.152E-01    1.45       1.0  T
   4    -93.9908457  0.131529E-01  0.588E-01    1.38       1.0  T
   5    -93.9882108  0.263491E-02  0.635E-01    1.36       1.0  T
   6    -94.0006252 -0.124145E-01  0.314E-01    1.41       1.0  T
   7    -93.9506717  0.499535E-01  0.144E+00    1.46       1.0  T
   8    -93.9963079 -0.456361E-01  0.559E-01    1.46       1.0  T
   9    -94.0019995 -0.569166E-02  0.345E-01    1.42       1.0  T
  10    -94.0051133 -0.311380E-02  0.108E-01    1.44       1.0  T
  11    -94.0053981 -0.284806E-03  0.363E-02    1.44       1.0  T
  12    -94.0054215 -0.233936E-04  0.215E-02    1.44       1.0  T
  13    -94.0054272 -0.564323E-05  0.109E-02    1.44       1.2  T
  14    -94.0054266  0.538654E-06  0.124E-02    1.44       1.0  T
  15    -94.0054286 -0.195904E-05  0.817E-03    1.44       1.5  T
  16    -94.0054305 -0.195079E-05  0.126E-03    1.44      10.0  T
  17    -94.0054306 -0.480894E-07  0.250E-04    1.44      50.4  T
  18    -94.0054305  0.124053E-06  0.210E-03    1.44       6.0  T
  19    -94.0054306 -0.118319E-06  0.532E-04    1.44      23.7  T
     SCC iter.                  ...        0 min,  0.098 sec
     gradient                   ...        0 min,  0.012 sec
 * total energy  :   -92.8177497 Eh     change       -0.2258405E-02 Eh
   gradient norm :     0.0203748 Eh/α   predicted    -0.2156555E-02 (  -4.51%)
   displ. norm   :     0.5340346 α      lambda       -0.1865186E-02
   maximum displ.:     0.2907017 α      in ANC's #2, #7, #20, ...

........................................................................
.............................. CYCLE   15 ..............................
........................................................................
   1    -94.0051308 -0.940051E+02  0.195E-01    1.45       0.0  T
   2    -93.9678663  0.372645E-01  0.783E-01    1.20       1.0  T
   3    -94.0056410 -0.377747E-01  0.110E-01    1.46       1.0  T
   4    -93.9980137  0.762733E-02  0.455E-01    1.41       1.0  T
   5    -93.9977055  0.308193E-03  0.471E-01    1.41       1.0  T
   6    -94.0010648 -0.335929E-02  0.431E-01    1.46       1.0  T
   7    -94.0059128 -0.484803E-02  0.117E-01    1.46       1.0  T
   8    -94.0055082  0.404558E-03  0.177E-01    1.44       1.0  T
   9    -94.0063048 -0.796514E-03  0.604E-02    1.45       1.0  T
  10    -94.0063695 -0.647413E-04  0.320E-02    1.45       1.0  T
  11    -94.0064008 -0.312697E-04  0.890E-03    1.45       1.4  T
  12    -94.0064023 -0.157587E-05  0.550E-03    1.45       2.3  T
  13    -94.0064031 -0.801859E-06  0.224E-03    1.45       5.6  T
  14    -94.0064033 -0.134235E-06  0.500E-04    1.45      25.2  T
  15    -94.0064033 -0.629549E-08  0.117E-04    1.45     107.4  T
     SCC iter.                  ...        0 min,  0.075 sec
     gradient                   ...        0 min,  0.011 sec
 * total energy  :   -92.8191464 Eh     change       -0.1396704E-02 Eh
   gradient norm :     0.0188923 Eh/α   predicted    -0.1198569E-02 ( -14.19%)
   displ. norm   :     0.4854412 α      lambda       -0.1347084E-02
   maximum displ.:     0.2871791 α      in ANC's #2, #7, #20, ...

........................................................................
.............................. CYCLE   16 ..............................
........................................................................
   1    -94.0094773 -0.940095E+02  0.133E-01    1.47       0.0  T
   2    -93.9844846  0.249927E-01  0.672E-01    1.32       1.0  T
   3    -94.0099045 -0.254199E-01  0.571E-02    1.47       1.0  T
   4    -94.0094073  0.497226E-03  0.118E-01    1.46       1.0  T
   5    -94.0086699  0.737382E-03  0.145E-01    1.45       1.0  T
   6    -94.0041973  0.447265E-02  0.435E-01    1.48       1.0  T
   7    -94.0066757 -0.247841E-02  0.322E-01    1.48       1.0  T
   8    -94.0098967 -0.322108E-02  0.346E-02    1.47       1.0  T
   9    -94.0098666  0.301904E-04  0.423E-02    1.47       1.0  T
  10    -94.0098957 -0.291546E-04  0.293E-02    1.47       1.0  T
  11    -94.0099187 -0.230244E-04  0.934E-03    1.47       1.3  T
  12    -94.0099179  0.836656E-06  0.916E-03    1.47       1.4  T
  13    -94.0099202 -0.234871E-05  0.255E-03    1.47       4.9  T
  14    -94.0099203 -0.675293E-07  0.210E-03    1.47       6.0  T
  15    -94.0099204 -0.127821E-06  0.519E-05    1.47     242.8  T
  16    -94.0099204  0.269607E-08  0.301E-04    1.47      41.9  T
     SCC iter.                  ...        0 min,  0.082 sec
     gradient                   ...        0 min,  0.011 sec
 * total energy  :   -92.8201875 Eh     change       -0.1041129E-02 Eh
   gradient norm :     0.0171614 Eh/α   predicted    -0.8322753E-03 ( -20.06%)
   displ. norm   :     0.4815902 α      lambda       -0.1147566E-02
   maximum displ.:     0.2979705 α      in ANC's #2, #7, #20, ...

........................................................................
.............................. CYCLE   17 ..............................
........................................................................
   1    -94.0114956 -0.940115E+02  0.114E-01    1.48       0.0  T
   2    -93.9961735  0.153221E-01  0.555E-01    1.40       1.0  T
   3    -94.0114464 -0.152730E-01  0.844E-02    1.48       1.0  T
   4    -94.0112962  0.150287E-03  0.110E-01    1.49       1.0  T
   5    -94.0051132  0.618299E-02  0.404E-01    1.51       1.0  T
   6    -94.0034110  0.170212E-02  0.498E-01    1.50       1.0  T
   7    -94.0085657 -0.515469E-02  0.324E-01    1.46       1.0  T
   8    -94.0112248 -0.265904E-02  0.125E-01    1.48       1.0  T
   9    -94.0116363 -0.411510E-03  0.334E-02    1.48       1.0  T
  10    -94.0116523 -0.160533E-04  0.179E-02    1.48       1.0  T
  11    -94.0116475  0.483315E-05  0.184E-02    1.48       1.0  T
  12    -94.0116577 -0.101678E-04  0.457E-03    1.48       2.8  T
  13    -94.0116582 -0.499619E-06  0.473E-04    1.48      26.6  T
  14    -94.0116582  0.195782E-08  0.412E-04    1.48      30.6  T
     SCC iter.                  ...        0 min,  0.073 sec
     gradient                   ...        0 min,  0.012 sec
 * total energy  :   -92.8210925 Eh     change       -0.9049446E-03 Eh
   gradient norm :     0.0168102 Eh/α   predicted    -0.7068646E-03 ( -21.89%)
   displ. norm   :     0.5003516 α      lambda       -0.1057095E-02
   maximum displ.:     0.3172758 α      in ANC's #2, #20, #7, ...

........................................................................
.............................. CYCLE   18 ..............................
........................................................................
   1    -94.0135007 -0.940135E+02  0.118E-01    1.50       0.0  T
   2    -93.9963142  0.171865E-01  0.586E-01    1.41       1.0  T
   3    -94.0136495 -0.173353E-01  0.673E-02    1.50       1.0  T
   4    -94.0136949 -0.453810E-04  0.398E-02    1.50       1.0  T
   5    -94.0105417  0.315325E-02  0.286E-01    1.52       1.0  T
   6    -94.0110702 -0.528488E-03  0.271E-01    1.51       1.0  T
   7    -94.0118315 -0.761299E-03  0.266E-01    1.49       1.0  T
   8    -94.0133627 -0.153125E-02  0.109E-01    1.49       1.0  T
   9    -94.0137003 -0.337618E-03  0.142E-02    1.50       1.0  T
  10    -94.0136981  0.228873E-05  0.135E-02    1.50       1.0  T
  11    -94.0137020 -0.392897E-05  0.722E-03    1.50       1.7  T
  12    -94.0137035 -0.149722E-05  0.222E-03    1.50       5.7  T
  13    -94.0137036 -0.137307E-06  0.422E-04    1.50      29.8  T
  14    -94.0137036 -0.153499E-08  0.420E-04    1.50      30.0  T
     SCC iter.                  ...        0 min,  0.072 sec
     gradient                   ...        0 min,  0.011 sec
 * total energy  :   -92.8219330 Eh     change       -0.8404688E-03 Eh
   gradient norm :     0.0182862 Eh/α   predicted    -0.6608744E-03 ( -21.37%)
   displ. norm   :     0.5276190 α      lambda       -0.1014690E-02
   maximum displ.:     0.3418869 α      in ANC's #2, #7, #1, ...

........................................................................
.............................. CYCLE   19 ..............................
........................................................................
   1    -94.0138547 -0.940139E+02  0.136E-01    1.52       0.0  T
   2    -93.9907243  0.231304E-01  0.659E-01    1.38       1.0  T
   3    -94.0139277 -0.232034E-01  0.100E-01    1.52       1.0  T
   4    -94.0142272 -0.299469E-03  0.572E-02    1.51       1.0  T
   5    -94.0113310  0.289618E-02  0.251E-01    1.49       1.0  T
   6    -94.0142425 -0.291153E-02  0.582E-02    1.51       1.0  T
   7    -94.0121574  0.208509E-02  0.264E-01    1.52       1.0  T
   8    -94.0142503 -0.209282E-02  0.150E-02    1.51       1.0  T
   9    -94.0142472  0.305334E-05  0.177E-02    1.51       1.0  T
  10    -94.0142492 -0.195088E-05  0.111E-02    1.51       1.1  T
  11    -94.0142527 -0.357130E-05  0.126E-03    1.51      10.0  T
  12    -94.0142522  0.551662E-06  0.451E-03    1.51       2.8  T
  13    -94.0142528 -0.613646E-06  0.286E-04    1.51      44.1  T
  14    -94.0142528  0.110774E-09  0.308E-04    1.51      40.9  T
     SCC iter.                  ...        0 min,  0.074 sec
     gradient                   ...        0 min,  0.011 sec
 * total energy  :   -92.8227413 Eh     change       -0.8083527E-03 Eh
   gradient norm :     0.0183375 Eh/α   predicted    -0.6485833E-03 ( -19.76%)
   displ. norm   :     0.5784841 α      lambda       -0.1043853E-02
   maximum displ.:     0.3634754 α      in ANC's #2, #7, #20, ...

........................................................................
.............................. CYCLE   20 ..............................
........................................................................
   1    -94.0111100 -0.940111E+02  0.170E-01    1.53       0.0  T
   2    -93.9812911  0.298189E-01  0.729E-01    1.33       1.0  T
   3    -94.0088242 -0.275331E-01  0.253E-01    1.54       1.0  T
   4    -94.0116541 -0.282994E-02  0.164E-01    1.52       1.0  T
   5    -94.0068415  0.481258E-02  0.377E-01    1.49       1.0  T
   6    -94.0116295 -0.478798E-02  0.836E-02    1.52       1.0  T
   7    -94.0112465  0.383048E-03  0.141E-01    1.53       1.0  T
   8    -94.0118897 -0.643239E-03  0.130E-02    1.53       1.0  T
   9    -94.0118615  0.281418E-04  0.341E-02    1.52       1.0  T
  10    -94.0118945 -0.329289E-04  0.533E-03    1.52       2.4  T
  11    -94.0118949 -0.391973E-06  0.298E-03    1.52       4.2  T
  12    -94.0118939  0.989555E-06  0.618E-03    1.52       2.0  T
  13    -94.0118950 -0.113811E-05  0.102E-03    1.52      12.4  T
  14    -94.0118948  0.179840E-06  0.265E-03    1.52       4.8  T
  15    -94.0118950 -0.195800E-06  0.185E-04    1.52      68.1  T
  16    -94.0118950  0.400405E-09  0.212E-04    1.52      59.4  T
     SCC iter.                  ...        0 min,  0.071 sec
     gradient                   ...        0 min,  0.011 sec
 * total energy  :   -92.8234755 Eh     change       -0.7342132E-03 Eh
   gradient norm :     0.0186741 Eh/α   predicted    -0.6965909E-03 (  -5.12%)
   displ. norm   :     0.5426458 α      lambda       -0.1230852E-02
   maximum displ.:     0.3423124 α      in ANC's #2, #1, #7, ...
 * RMSD in coord.:     1.0362888 α      energy gain  -0.2006873E+01 Eh

generating ANC from model Hessian ...
Using Lindh-Hessian (1995)
 Shifting diagonal of input Hessian by   1.028686637503259E-002
 Lowest  eigenvalues of input Hessian
    0.010000    0.000000    0.000000    0.000000    0.000000    0.000000
    0.000000    0.010430    0.010485    0.010663    0.010731    0.010853
    0.010980    0.011054    0.011260    0.011618    0.012040    0.012373
 Highest eigenvalues
    1.862467    1.916332    1.939023    2.039792    2.099420    2.120325
 

........................................................................
.............................. CYCLE   21 ..............................
........................................................................
   1    -94.0178140 -0.940178E+02  0.174E-01    1.54       0.0  T
   2    -93.9892737  0.285403E-01  0.727E-01    1.35       1.0  T
   3    -94.0071036 -0.178299E-01  0.520E-01    1.56       1.0  T
   4    -94.0145690 -0.746546E-02  0.238E-01    1.55       1.0  T
   5    -94.0094899  0.507909E-02  0.522E-01    1.48       1.0  T
   6    -94.0139110 -0.442110E-02  0.377E-01    1.50       1.0  T
   7    -94.0177396 -0.382862E-02  0.144E-01    1.54       1.0  T
   8    -94.0183483 -0.608648E-03  0.687E-02    1.53       1.0  T
   9    -94.0184612 -0.112906E-03  0.445E-02    1.53       1.0  T
  10    -94.0185124 -0.512204E-04  0.122E-02    1.53       1.0  T
  11    -94.0185132 -0.772336E-06  0.103E-02    1.53       1.2  T
  12    -94.0185154 -0.219084E-05  0.479E-03    1.53       2.6  T
  13    -94.0185159 -0.558957E-06  0.112E-03    1.53      11.2  T
  14    -94.0185156  0.297797E-06  0.361E-03    1.53       3.5  T
  15    -94.0185160 -0.355558E-06  0.464E-04    1.53      27.1  T
  16    -94.0185160 -0.372494E-08  0.721E-05    1.53     174.8  T
     SCC iter.                  ...        0 min,  0.068 sec
     gradient                   ...        0 min,  0.011 sec
 * total energy  :   -92.8240787 Eh     change       -0.6031825E-03 Eh
   gradient norm :     0.0170347 Eh/α   predicted     0.0000000E+00 (-100.00%)
   displ. norm   :     0.1486608 α      lambda       -0.7623855E-03
   maximum displ.:     0.0651247 α      in ANC's #1, #3, #15, ...

........................................................................
.............................. CYCLE   22 ..............................
........................................................................
   1    -94.0172333 -0.940172E+02  0.111E-01    1.52       0.0  T
   2    -94.0146094  0.262389E-02  0.286E-01    1.50       1.0  T
   3    -93.9683053  0.463040E-01  0.121E+00    1.56       1.0  T
   4    -94.0172027 -0.488974E-01  0.675E-02    1.52       1.0  T
   5    -94.0131398  0.406291E-02  0.324E-01    1.49       1.0  T
   6    -94.0171797 -0.403987E-02  0.722E-02    1.52       1.0  T
   7    -94.0170750  0.104700E-03  0.833E-02    1.52       1.0  T
   8    -94.0172573 -0.182374E-03  0.279E-02    1.52       1.0  T
   9    -94.0172673 -0.997892E-05  0.125E-02    1.52       1.0  T
  10    -94.0172688 -0.147917E-05  0.662E-03    1.52       1.9  T
  11    -94.0172697 -0.880477E-06  0.449E-03    1.52       2.8  T
  12    -94.0172698 -0.171549E-06  0.326E-03    1.52       3.9  T
  13    -94.0172701 -0.252049E-06  0.853E-04    1.52      14.8  T
  14    -94.0172701 -0.957544E-08  0.225E-04    1.52      55.9  T
     SCC iter.                  ...        0 min,  0.060 sec
     gradient                   ...        0 min,  0.011 sec
 * total energy  :   -92.8245664 Eh     change       -0.4876749E-03 Eh
   gradient norm :     0.0078566 Eh/α   predicted    -0.3896259E-03 ( -20.11%)
   displ. norm   :     0.2404114 α      lambda       -0.5857965E-03
   maximum displ.:     0.1117255 α      in ANC's #3, #15, #7, ...

........................................................................
.............................. CYCLE   23 ..............................
........................................................................
   1    -94.0154419 -0.940154E+02  0.134E-01    1.51       0.0  T
   2    -94.0128805  0.256135E-02  0.262E-01    1.49       1.0  T
   3    -93.9579536  0.549270E-01  0.132E+00    1.53       1.0  T
   4    -94.0111154 -0.531618E-01  0.328E-01    1.52       1.0  T
   5    -94.0113877 -0.272295E-03  0.311E-01    1.48       1.0  T
   6    -94.0154950 -0.410734E-02  0.230E-02    1.51       1.0  T
   7    -94.0154476  0.474048E-04  0.421E-02    1.50       1.0  T
   8    -94.0154864 -0.388577E-04  0.176E-02    1.51       1.0  T
   9    -94.0154481  0.383386E-04  0.362E-02    1.51       1.0  T
  10    -94.0154978 -0.497257E-04  0.553E-03    1.51       2.3  T
  11    -94.0154978  0.546722E-07  0.464E-03    1.51       2.7  T
  12    -94.0154977  0.110647E-06  0.443E-03    1.51       2.8  T
  13    -94.0154981 -0.431015E-06  0.105E-03    1.51      12.0  T
  14    -94.0154981 -0.155707E-08  0.116E-03    1.51      10.9  T
  15    -94.0154981 -0.360785E-07  0.412E-04    1.51      30.6  T
  16    -94.0154981 -0.377017E-08  0.546E-05    1.51     230.7  T
     SCC iter.                  ...        0 min,  0.068 sec
     gradient                   ...        0 min,  0.011 sec
 * total energy  :   -92.8248224 Eh     change       -0.2559683E-03 Eh
   gradient norm :     0.0069909 Eh/α   predicted    -0.3098285E-03 (  21.04%)
   displ. norm   :     0.2060829 α      lambda       -0.3650015E-03
   maximum displ.:     0.1058682 α      in ANC's #3, #1, #4, ...

........................................................................
.............................. CYCLE   24 ..............................
........................................................................
   1    -94.0158600 -0.940159E+02  0.102E-01    1.51       0.0  T
   2    -94.0027766  0.130834E-01  0.552E-01    1.45       1.0  T
   3    -94.0020301  0.746536E-03  0.617E-01    1.55       1.0  T
   4    -94.0111770 -0.914689E-02  0.318E-01    1.54       1.0  T
   5    -94.0120949 -0.917926E-03  0.333E-01    1.49       1.0  T
   6    -94.0155471 -0.345223E-02  0.110E-01    1.51       1.0  T
   7    -94.0157152 -0.168065E-03  0.847E-02    1.52       1.0  T
   8    -94.0159680 -0.252812E-03  0.114E-02    1.51       1.1  T
   9    -94.0159736 -0.559691E-05  0.452E-03    1.51       2.8  T
  10    -94.0159690  0.463112E-05  0.136E-02    1.51       1.0  T
  11    -94.0159742 -0.527010E-05  0.148E-03    1.51       8.5  T
  12    -94.0159743 -0.528712E-07  0.531E-04    1.51      23.7  T
  13    -94.0159743 -0.364841E-08  0.208E-04    1.51      60.6  T
     SCC iter.                  ...        0 min,  0.056 sec
     gradient                   ...        0 min,  0.011 sec
 * total energy  :   -92.8250630 Eh     change       -0.2406149E-03 Eh
   gradient norm :     0.0076002 Eh/α   predicted    -0.1902538E-03 ( -20.93%)
   displ. norm   :     0.2797788 α      lambda       -0.3637393E-03
   maximum displ.:     0.1504662 α      in ANC's #3, #1, #4, ...

........................................................................
.............................. CYCLE   25 ..............................
........................................................................
   1    -94.0169699 -0.940170E+02  0.870E-02    1.51       0.0  T
   2    -94.0030060  0.139639E-01  0.564E-01    1.44       1.0  T
   3    -94.0059960 -0.299005E-02  0.545E-01    1.54       1.0  T
   4    -94.0136517 -0.765569E-02  0.260E-01    1.53       1.0  T
   5    -94.0139125 -0.260807E-03  0.317E-01    1.49       1.0  T
   6    -94.0154969 -0.158436E-02  0.221E-01    1.50       1.0  T
   7    -94.0170172 -0.152028E-02  0.536E-02    1.51       1.0  T
   8    -94.0170780 -0.607934E-04  0.619E-03    1.51       2.0  T
   9    -94.0170780 -0.170348E-07  0.904E-03    1.51       1.4  T
  10    -94.0170787 -0.684060E-06  0.791E-03    1.51       1.6  T
  11    -94.0170804 -0.174609E-05  0.131E-03    1.51       9.6  T
  12    -94.0170804 -0.199463E-07  0.918E-04    1.51      13.7  T
  13    -94.0170805 -0.288611E-07  0.206E-04    1.51      61.1  T
     SCC iter.                  ...        0 min,  0.056 sec
     gradient                   ...        0 min,  0.011 sec
 * total energy  :   -92.8253568 Eh     change       -0.2938435E-03 Eh
   gradient norm :     0.0062841 Eh/α   predicted    -0.1961059E-03 ( -33.26%)
   displ. norm   :     0.4664728 α      lambda       -0.4813916E-03
   maximum displ.:     0.2540873 α      in ANC's #3, #4, #1, ...

........................................................................
.............................. CYCLE   26 ..............................
........................................................................
   1    -94.0178181 -0.940178E+02  0.113E-01    1.52       0.0  T
   2    -93.9969358  0.208823E-01  0.647E-01    1.40       1.0  T
   3    -94.0113956 -0.144598E-01  0.409E-01    1.53       1.0  T
   4    -94.0134775 -0.208189E-02  0.283E-01    1.53       1.0  T
   5    -94.0140475 -0.570016E-03  0.366E-01    1.49       1.0  T
   6    -94.0150997 -0.105219E-02  0.317E-01    1.49       1.0  T
   7    -94.0180419 -0.294224E-02  0.341E-02    1.51       1.0  T
   8    -94.0180806 -0.386641E-04  0.398E-03    1.51       3.2  T
   9    -94.0180769  0.371995E-05  0.131E-02    1.51       1.0  T
  10    -94.0180811 -0.424624E-05  0.187E-03    1.51       6.8  T
  11    -94.0180808  0.348849E-06  0.348E-03    1.51       3.6  T
  12    -94.0180810 -0.192651E-06  0.282E-03    1.51       4.5  T
  13    -94.0180812 -0.214280E-06  0.120E-03    1.51      10.5  T
  14    -94.0180812 -0.371289E-07  0.111E-04    1.51     113.0  T
  15    -94.0180812 -0.207166E-09  0.823E-05    1.51     153.1  T
     SCC iter.                  ...        0 min,  0.064 sec
     gradient                   ...        0 min,  0.011 sec
 * total energy  :   -92.8257401 Eh     change       -0.3832540E-03 Eh
   gradient norm :     0.0062574 Eh/α   predicted    -0.2930723E-03 ( -23.53%)
   displ. norm   :     0.5117501 α      lambda       -0.4259258E-03
   maximum displ.:     0.2869712 α      in ANC's #3, #4, #7, ...

........................................................................
.............................. CYCLE   27 ..............................
........................................................................
   1    -94.0167320 -0.940167E+02  0.134E-01    1.51       0.0  T
   2    -93.9930406  0.236914E-01  0.676E-01    1.37       1.0  T
   3    -94.0033673 -0.103267E-01  0.589E-01    1.54       1.0  T
   4    -94.0042409 -0.873642E-03  0.512E-01    1.54       1.0  T
   5    -94.0095671 -0.532622E-02  0.499E-01    1.47       1.0  T
   6    -94.0119968 -0.242969E-02  0.411E-01    1.48       1.0  T
   7    -94.0164197 -0.442293E-02  0.165E-01    1.50       1.0  T
   8    -94.0170034 -0.583672E-03  0.516E-02    1.51       1.0  T
   9    -94.0170662 -0.627664E-04  0.279E-02    1.51       1.0  T
  10    -94.0170920 -0.258514E-04  0.257E-03    1.51       4.9  T
  11    -94.0170909  0.109420E-05  0.673E-03    1.51       1.9  T
  12    -94.0170918 -0.883627E-06  0.364E-03    1.51       3.5  T
  13    -94.0170919 -0.439008E-07  0.394E-03    1.51       3.2  T
  14    -94.0170922 -0.357869E-06  0.736E-04    1.51      17.1  T
  15    -94.0170922 -0.787846E-08  0.417E-04    1.51      30.2  T
     SCC iter.                  ...        0 min,  0.064 sec
     gradient                   ...        0 min,  0.011 sec
 * total energy  :   -92.8260717 Eh     change       -0.3316738E-03 Eh
   gradient norm :     0.0062746 Eh/α   predicted    -0.2687366E-03 ( -18.98%)
   displ. norm   :     0.4655360 α      lambda       -0.3897006E-03
   maximum displ.:     0.2732081 α      in ANC's #3, #7, #4, ...

........................................................................
.............................. CYCLE   28 ..............................
........................................................................
   1    -94.0179290 -0.940179E+02  0.882E-02    1.53       0.0  T
   2    -93.9983236  0.196054E-01  0.624E-01    1.42       1.0  T
   3    -94.0179999 -0.196763E-01  0.798E-02    1.52       1.0  T
   4    -94.0163373  0.166258E-02  0.197E-01    1.51       1.0  T
   5    -94.0180671 -0.172978E-02  0.112E-01    1.52       1.0  T
   6    -94.0132350  0.483207E-02  0.407E-01    1.54       1.0  T
   7    -94.0149351 -0.170006E-02  0.325E-01    1.54       1.0  T
   8    -94.0181526 -0.321746E-02  0.606E-03    1.52       2.1  T
   9    -94.0181163  0.362458E-04  0.369E-02    1.52       1.0  T
  10    -94.0181070  0.928056E-05  0.402E-02    1.52       1.0  T
  11    -94.0181448 -0.377759E-04  0.195E-02    1.52       1.0  T
  12    -94.0181533 -0.844783E-05  0.340E-03    1.52       3.7  T
  13    -94.0181535 -0.204841E-06  0.140E-03    1.52       9.0  T
  14    -94.0181533  0.127339E-06  0.277E-03    1.52       4.6  T
  15    -94.0181535 -0.200969E-06  0.820E-05    1.52     153.7  T
  16    -94.0181535  0.683420E-08  0.514E-04    1.52      24.5  T
     SCC iter.                  ...        0 min,  0.071 sec
     gradient                   ...        0 min,  0.011 sec
 * total energy  :   -92.8263585 Eh     change       -0.2867310E-03 Eh
   gradient norm :     0.0059695 Eh/α   predicted    -0.2370809E-03 ( -17.32%)
   displ. norm   :     0.4374189 α      lambda       -0.3931294E-03
   maximum displ.:     0.2685274 α      in ANC's #3, #7, #4, ...

........................................................................
.............................. CYCLE   29 ..............................
........................................................................
   1    -94.0179711 -0.940180E+02  0.128E-01    1.53       0.0  T
   2    -93.9935094  0.244617E-01  0.681E-01    1.39       1.0  T
   3    -94.0121434 -0.186340E-01  0.388E-01    1.55       1.0  T
   4    -94.0141884 -0.204500E-02  0.272E-01    1.55       1.0  T
   5    -94.0124690  0.171941E-02  0.424E-01    1.50       1.0  T
   6    -94.0128625 -0.393430E-03  0.409E-01    1.50       1.0  T
   7    -94.0182901 -0.542766E-02  0.536E-02    1.52       1.0  T
   8    -94.0182360  0.541154E-04  0.668E-02    1.53       1.0  T
   9    -94.0183480 -0.112009E-03  0.211E-02    1.53       1.0  T
  10    -94.0183629 -0.148957E-04  0.371E-03    1.53       3.4  T
  11    -94.0183630 -0.846279E-07  0.170E-03    1.53       7.4  T
  12    -94.0183630 -0.261859E-08  0.155E-03    1.53       8.1  T
  13    -94.0183630 -0.357861E-07  0.807E-04    1.53      15.6  T
  14    -94.0183630 -0.170166E-07  0.266E-04    1.53      47.3  T
     SCC iter.                  ...        0 min,  0.060 sec
     gradient                   ...        0 min,  0.011 sec
 * total energy  :   -92.8266548 Eh     change       -0.2962895E-03 Eh
   gradient norm :     0.0055565 Eh/α   predicted    -0.2341752E-03 ( -20.96%)
   displ. norm   :     0.4265420 α      lambda       -0.3510509E-03
   maximum displ.:     0.2677102 α      in ANC's #3, #7, #4, ...

........................................................................
.............................. CYCLE   30 ..............................
........................................................................
   1    -94.0185930 -0.940186E+02  0.115E-01    1.55       0.0  T
   2    -93.9935929  0.250001E-01  0.681E-01    1.40       1.0  T
   3    -94.0188454 -0.252526E-01  0.593E-02    1.55       1.0  T
   4    -94.0175154  0.132999E-02  0.205E-01    1.53       1.0  T
   5    -94.0167466  0.768857E-03  0.235E-01    1.52       1.0  T
   6    -94.0095773  0.716924E-02  0.580E-01    1.56       1.0  T
   7    -94.0177620 -0.818468E-02  0.204E-01    1.55       1.0  T
   8    -94.0190107 -0.124868E-02  0.179E-02    1.54       1.0  T
   9    -94.0190053  0.539163E-05  0.160E-02    1.54       1.0  T
  10    -94.0190142 -0.890857E-05  0.744E-03    1.54       1.7  T
  11    -94.0190132  0.105045E-05  0.956E-03    1.54       1.3  T
  12    -94.0190150 -0.179409E-05  0.483E-03    1.54       2.6  T
  13    -94.0190155 -0.592082E-06  0.744E-04    1.54      16.9  T
  14    -94.0190156 -0.225046E-07  0.111E-04    1.54     113.6  T
     SCC iter.                  ...        0 min,  0.061 sec
     gradient                   ...        0 min,  0.011 sec
 * total energy  :   -92.8269504 Eh     change       -0.2956078E-03 Eh
   gradient norm :     0.0056101 Eh/α   predicted    -0.2074612E-03 ( -29.82%)
   displ. norm   :     0.4937113 α      lambda       -0.3990852E-03
   maximum displ.:     0.3091481 α      in ANC's #3, #7, #4, ...

........................................................................
.............................. CYCLE   31 ..............................
........................................................................
   1    -94.0187522 -0.940188E+02  0.148E-01    1.56       0.0  T
   2    -93.9893814  0.293708E-01  0.719E-01    1.38       1.0  T
   3    -94.0182869 -0.289055E-01  0.147E-01    1.57       1.0  T
   4    -94.0181892  0.976336E-04  0.223E-01    1.54       1.0  T
   5    -94.0159509  0.223836E-02  0.308E-01    1.53       1.0  T
   6    -94.0178649 -0.191405E-02  0.244E-01    1.56       1.0  T
   7    -94.0178730 -0.805062E-05  0.225E-01    1.57       1.0  T
   8    -94.0194374 -0.156438E-02  0.134E-02    1.55       1.0  T
   9    -94.0194325  0.485344E-05  0.122E-02    1.56       1.0  T
  10    -94.0194383 -0.575668E-05  0.731E-03    1.55       1.7  T
  11    -94.0194377  0.565654E-06  0.851E-03    1.55       1.5  T
  12    -94.0194381 -0.442366E-06  0.673E-03    1.55       1.9  T
  13    -94.0194395 -0.135651E-05  0.223E-04    1.55      56.5  T
  14    -94.0194395  0.111140E-08  0.293E-04    1.55      43.0  T
  15    -94.0194395 -0.609802E-09  0.187E-04    1.55      67.4  T
     SCC iter.                  ...        0 min,  0.066 sec
     gradient                   ...        0 min,  0.011 sec
 * total energy  :   -92.8272828 Eh     change       -0.3324679E-03 Eh
   gradient norm :     0.0054163 Eh/α   predicted    -0.2481821E-03 ( -25.35%)
   displ. norm   :     0.5267494 α      lambda       -0.3623923E-03
   maximum displ.:     0.3338937 α      in ANC's #3, #7, #4, ...

........................................................................
.............................. CYCLE   32 ..............................
........................................................................
   1    -94.0178693 -0.940179E+02  0.161E-01    1.57       0.0  T
   2    -93.9870065  0.308628E-01  0.732E-01    1.37       1.0  T
   3    -94.0164749 -0.294684E-01  0.206E-01    1.58       1.0  T
   4    -94.0178152 -0.134034E-02  0.217E-01    1.56       1.0  T
   5    -94.0142178  0.359740E-02  0.355E-01    1.54       1.0  T
   6    -94.0184882 -0.427032E-02  0.914E-02    1.57       1.0  T
   7    -94.0183836  0.104588E-03  0.953E-02    1.57       1.0  T
   8    -94.0186789 -0.295311E-03  0.766E-03    1.56       1.6  T
   9    -94.0186737  0.515897E-05  0.133E-02    1.56       1.0  T
  10    -94.0186777 -0.393554E-05  0.900E-03    1.56       1.4  T
  11    -94.0186794 -0.174980E-05  0.288E-03    1.56       4.4  T
  12    -94.0186786  0.820879E-06  0.550E-03    1.56       2.3  T
  13    -94.0186795 -0.961877E-06  0.918E-04    1.56      13.7  T
  14    -94.0186796 -0.228883E-07  0.179E-04    1.56      70.3  T
     SCC iter.                  ...        0 min,  0.060 sec
     gradient                   ...        0 min,  0.011 sec
 * total energy  :   -92.8275853 Eh     change       -0.3024952E-03 Eh
   gradient norm :     0.0053498 Eh/α   predicted    -0.2314734E-03 ( -23.48%)
   displ. norm   :     0.5153498 α      lambda       -0.3212398E-03
   maximum displ.:     0.3320568 α      in ANC's #3, #7, #4, ...

........................................................................
.............................. CYCLE   33 ..............................
........................................................................
   1    -94.0180542 -0.940181E+02  0.148E-01    1.57       0.0  T
   2    -93.9897943  0.282599E-01  0.710E-01    1.39       1.0  T
   3    -94.0160323 -0.262380E-01  0.238E-01    1.58       1.0  T
   4    -94.0186748 -0.264248E-02  0.938E-02    1.57       1.0  T
   5    -94.0143787  0.429608E-02  0.351E-01    1.54       1.0  T
   6    -94.0166177 -0.223903E-02  0.242E-01    1.55       1.0  T
   7    -94.0181618 -0.154410E-02  0.133E-01    1.57       1.0  T
   8    -94.0186276 -0.465794E-03  0.484E-02    1.57       1.0  T
   9    -94.0186844 -0.567735E-04  0.170E-02    1.57       1.0  T
  10    -94.0186920 -0.759411E-05  0.471E-03    1.57       2.7  T
  11    -94.0186926 -0.658184E-06  0.346E-03    1.57       3.6  T
  12    -94.0186924  0.184582E-06  0.414E-03    1.57       3.0  T
  13    -94.0186929 -0.441345E-06  0.580E-04    1.57      21.7  T
  14    -94.0186929  0.668553E-08  0.941E-04    1.57      13.4  T
     SCC iter.                  ...        0 min,  0.060 sec
     gradient                   ...        0 min,  0.011 sec
 * total energy  :   -92.8278592 Eh     change       -0.2738958E-03 Eh
   gradient norm :     0.0051095 Eh/α   predicted    -0.2032842E-03 ( -25.78%)
   displ. norm   :     0.5203343 α      lambda       -0.3098200E-03
   maximum displ.:     0.3431089 α      in ANC's #3, #7, #4, ...

........................................................................
.............................. CYCLE   34 ..............................
........................................................................
   1    -94.0180528 -0.940181E+02  0.133E-01    1.57       0.0  T
   2    -93.9934423  0.246104E-01  0.680E-01    1.42       1.0  T
   3    -94.0144914 -0.210491E-01  0.310E-01    1.58       1.0  T
   4    -94.0164828 -0.199140E-02  0.178E-01    1.58       1.0  T
   5    -94.0122784  0.420439E-02  0.425E-01    1.53       1.0  T
   6    -94.0115775  0.700912E-03  0.449E-01    1.53       1.0  T
   7    -94.0184116 -0.683407E-02  0.484E-02    1.56       1.0  T
   8    -94.0183629  0.486597E-04  0.718E-02    1.57       1.0  T
   9    -94.0184925 -0.129606E-03  0.125E-02    1.56       1.0  T
  10    -94.0184976 -0.509785E-05  0.264E-03    1.56       4.8  T
  11    -94.0184975  0.631285E-07  0.443E-03    1.56       2.8  T
  12    -94.0184978 -0.279995E-06  0.218E-03    1.56       5.8  T
  13    -94.0184979 -0.105301E-06  0.337E-04    1.56      37.4  T
  14    -94.0184979  0.220496E-07  0.914E-04    1.56      13.8  T
     SCC iter.                  ...        0 min,  0.060 sec
     gradient                   ...        0 min,  0.011 sec
 * total energy  :   -92.8281227 Eh     change       -0.2635167E-03 Eh
   gradient norm :     0.0047203 Eh/α   predicted    -0.1968558E-03 ( -25.30%)
   displ. norm   :     0.5158588 α      lambda       -0.3041505E-03
   maximum displ.:     0.3473065 α      in ANC's #3, #4, #7, ...

........................................................................
.............................. CYCLE   35 ..............................
........................................................................
   1    -94.0190784 -0.940191E+02  0.110E-01    1.57       0.0  T
   2    -94.0004649  0.186134E-01  0.617E-01    1.46       1.0  T
   3    -94.0152045 -0.147396E-01  0.329E-01    1.58       1.0  T
   4    -94.0145744  0.630066E-03  0.313E-01    1.58       1.0  T
   5    -94.0137954  0.779057E-03  0.418E-01    1.53       1.0  T
   6    -94.0138931 -0.977399E-04  0.412E-01    1.53       1.0  T
   7    -94.0187820 -0.488884E-02  0.136E-01    1.55       1.0  T
   8    -94.0193069 -0.524891E-03  0.527E-03    1.56       2.4  T
   9    -94.0193012  0.568628E-05  0.132E-02    1.56       1.0  T
  10    -94.0193072 -0.601332E-05  0.350E-03    1.56       3.6  T
  11    -94.0193068  0.430495E-06  0.451E-03    1.56       2.8  T
  12    -94.0193074 -0.678725E-06  0.865E-04    1.56      14.6  T
  13    -94.0193071  0.369350E-06  0.378E-03    1.56       3.3  T
  14    -94.0193074 -0.381686E-06  0.576E-04    1.56      21.9  T
     SCC iter.                  ...        0 min,  0.069 sec
     gradient                   ...        0 min,  0.011 sec
 * total energy  :   -92.8283805 Eh     change       -0.2577887E-03 Eh
   gradient norm :     0.0044119 Eh/α   predicted    -0.1925457E-03 ( -25.31%)
   displ. norm   :     0.5418326 α      lambda       -0.2918546E-03
   maximum displ.:     0.3690748 α      in ANC's #3, #4, #7, ...

........................................................................
.............................. CYCLE   36 ..............................
........................................................................
   1    -94.0184795 -0.940185E+02  0.101E-01    1.56       0.0  T
   2    -94.0043438  0.141356E-01  0.556E-01    1.48       1.0  T
   3    -94.0135224 -0.917859E-02  0.375E-01    1.58       1.0  T
   4    -94.0128350  0.687421E-03  0.359E-01    1.58       1.0  T
   5    -94.0138697 -0.103464E-02  0.387E-01    1.53       1.0  T
   6    -94.0140739 -0.204224E-03  0.372E-01    1.53       1.0  T
   7    -94.0183128 -0.423895E-02  0.103E-01    1.55       1.0  T
   8    -94.0186156 -0.302789E-03  0.575E-03    1.56       2.2  T
   9    -94.0186130  0.265132E-05  0.911E-03    1.56       1.4  T
  10    -94.0186159 -0.289654E-05  0.282E-03    1.56       4.5  T
  11    -94.0186152  0.672909E-06  0.488E-03    1.56       2.6  T
  12    -94.0186160 -0.836816E-06  0.432E-04    1.56      29.2  T
  13    -94.0186158  0.223157E-06  0.289E-03    1.56       4.4  T
  14    -94.0186160 -0.225631E-06  0.123E-04    1.56     102.3  T
     SCC iter.                  ...        0 min,  0.063 sec
     gradient                   ...        0 min,  0.011 sec
 * total energy  :   -92.8286237 Eh     change       -0.2431587E-03 Eh
   gradient norm :     0.0050741 Eh/α   predicted    -0.1887732E-03 ( -22.37%)
   displ. norm   :     0.5249699 α      lambda       -0.2774087E-03
   maximum displ.:     0.3615703 α      in ANC's #3, #4, #7, ...

........................................................................
.............................. CYCLE   37 ..............................
........................................................................
   1    -94.0200038 -0.940200E+02  0.804E-02    1.55       0.0  T
   2    -94.0152556  0.474817E-02  0.341E-01    1.52       1.0  T
   3    -94.0165177 -0.126206E-02  0.321E-01    1.57       1.0  T
   4    -94.0167268 -0.209168E-03  0.280E-01    1.57       1.0  T
   5    -94.0180271 -0.130022E-02  0.241E-01    1.54       1.0  T
   6    -94.0196949 -0.166789E-02  0.981E-02    1.55       1.0  T
   7    -94.0200382 -0.343293E-03  0.571E-03    1.55       2.2  T
   8    -94.0200380  0.240690E-06  0.623E-03    1.55       2.0  T
   9    -94.0200382 -0.239836E-06  0.589E-03    1.55       2.1  T
  10    -94.0200393 -0.102340E-05  0.252E-03    1.55       5.0  T
  11    -94.0200393 -0.170893E-07  0.158E-03    1.55       8.0  T
  12    -94.0200393 -0.572837E-07  0.929E-04    1.55      13.6  T
  13    -94.0200394 -0.289755E-07  0.820E-05    1.55     153.6  T
     SCC iter.                  ...        0 min,  0.057 sec
     gradient                   ...        0 min,  0.011 sec
 * total energy  :   -92.8288274 Eh     change       -0.2037348E-03 Eh
   gradient norm :     0.0050691 Eh/α   predicted    -0.1769315E-03 ( -13.16%)
   displ. norm   :     0.4578911 α      lambda       -0.1888240E-03
   maximum displ.:     0.3181203 α      in ANC's #3, #4, #7, ...

........................................................................
.............................. CYCLE   38 ..............................
........................................................................
   1    -94.0175601 -0.940176E+02  0.666E-02    1.55       0.0  T
   2    -94.0140224  0.353772E-02  0.298E-01    1.53       1.0  T
   3    -94.0156449 -0.162249E-02  0.237E-01    1.57       1.0  T
   4    -94.0165434 -0.898541E-03  0.149E-01    1.56       1.0  T
   5    -94.0164600  0.833948E-04  0.177E-01    1.54       1.0  T
   6    -94.0174445 -0.984497E-03  0.646E-02    1.55       1.0  T
   7    -94.0175815 -0.136983E-03  0.376E-03    1.55       3.4  T
   8    -94.0175780  0.349125E-05  0.966E-03    1.55       1.3  T
   9    -94.0175817 -0.364341E-05  0.122E-03    1.55      10.3  T
  10    -94.0175813  0.358352E-06  0.313E-03    1.55       4.0  T
  11    -94.0175816 -0.321533E-06  0.144E-03    1.55       8.7  T
  12    -94.0175817 -0.624329E-07  0.299E-04    1.55      42.1  T
  13    -94.0175817 -0.234584E-08  0.126E-04    1.55      99.9  T
     SCC iter.                  ...        0 min,  0.063 sec
     gradient                   ...        0 min,  0.011 sec
 * total energy  :   -92.8289435 Eh     change       -0.1161155E-03 Eh
   gradient norm :     0.0052398 Eh/α   predicted    -0.1142108E-03 (  -1.64%)
   displ. norm   :     0.2668719 α      lambda       -0.1317850E-03
   maximum displ.:     0.1885006 α      in ANC's #3, #4, #2, ...

........................................................................
.............................. CYCLE   39 ..............................
........................................................................
   1    -94.0201986 -0.940202E+02  0.397E-02    1.55       0.0  T
   2    -94.0180538  0.214478E-02  0.252E-01    1.57       1.0  T
   3    -94.0200962 -0.204240E-02  0.551E-02    1.55       1.0  T
   4    -94.0196084  0.487786E-03  0.120E-01    1.56       1.0  T
   5    -94.0201000 -0.491578E-03  0.526E-02    1.55       1.0  T
   6    -94.0202055 -0.105580E-03  0.508E-03    1.55       2.5  T
   7    -94.0202018  0.374949E-05  0.121E-02    1.55       1.0  T
   8    -94.0202068 -0.496994E-05  0.253E-03    1.55       5.0  T
   9    -94.0202070 -0.189873E-06  0.118E-03    1.55      10.7  T
  10    -94.0202069  0.859520E-07  0.192E-03    1.55       6.6  T
  11    -94.0202070 -0.945524E-07  0.774E-04    1.55      16.3  T
  12    -94.0202070 -0.218783E-07  0.171E-04    1.55      73.5  T
     SCC iter.                  ...        0 min,  0.055 sec
     gradient                   ...        0 min,  0.011 sec
 * total energy  :   -92.8290311 Eh     change       -0.8755165E-04 Eh
   gradient norm :     0.0034014 Eh/α   predicted    -0.7058749E-04 ( -19.38%)
   displ. norm   :     0.2231346 α      lambda       -0.7991150E-04
   maximum displ.:     0.1608146 α      in ANC's #3, #4, #2, ...

........................................................................
.............................. CYCLE   40 ..............................
........................................................................
   1    -94.0205127 -0.940205E+02  0.304E-02    1.55       0.0  T
[...]
 iterations                     ...        0 min,  0.025 sec ( 56.532%)
 molecular gradient             ...        0 min,  0.011 sec ( 25.412%)
 printout                       ...        0 min,  0.001 sec (  2.115%)

         :::::::::::::::::::::::::::::::::::::::::::::::::::::
         ::                     SUMMARY                     ::
         :::::::::::::::::::::::::::::::::::::::::::::::::::::
         :: total energy             -92.832820866735 Eh    ::
         :: total w/o Gsasa/hb       -92.797983401279 Eh    ::
         :: gradient norm              0.000074692447 Eh/a0 ::
         :: HOMO-LUMO gap              1.531362090771 eV    ::
         ::.................................................::
         :: SCC energy               -94.025065523167 Eh    ::
         :: -> isotropic ES            0.129671152067 Eh    ::
         :: -> anisotropic ES          0.009601858230 Eh    ::
         :: -> anisotropic XC          0.020707878285 Eh    ::
         :: -> dispersion             -0.091798314478 Eh    ::
         :: -> Gsolv                  -0.056561918474 Eh    ::
         ::    -> Gelec               -0.021724453019 Eh    ::
         ::    -> Gsasa               -0.038986162817 Eh    ::
         ::    -> Ghb                  0.000000000000 Eh    ::
         ::    -> Gshift               0.004148697361 Eh    ::
         :: repulsion energy           1.188877291820 Eh    ::
         :: add. restraining           0.000000000000 Eh    ::
         :: total charge              -0.000000000000 e     ::
         :::::::::::::::::::::::::::::::::::::::::::::::::::::

           -------------------------------------------------
          |                Property Printout                |
           -------------------------------------------------

    * Orbital Energies and Occupations

         #    Occupation            Energy/Eh            Energy/eV
      -------------------------------------------------------------
         1        2.0000           -0.7380113             -20.0823
       ...           ...                  ...                  ...
        74        2.0000           -0.4078686             -11.0987
        75        2.0000           -0.3971978             -10.8083
        76        2.0000           -0.3937500             -10.7145
        77        2.0000           -0.3885442             -10.5728
        78        2.0000           -0.3873577             -10.5405
        79        2.0000           -0.3751940             -10.2095
        80        2.0000           -0.3367907              -9.1645
        81        2.0000           -0.3310546              -9.0085
        82        2.0000           -0.3227107              -8.7814
        83        2.0000           -0.3189424              -8.6789
        84        1.9979           -0.3144256              -8.5560
        85        1.8743           -0.3104249              -8.4471
        86        1.1279           -0.3067582              -8.3473 (HOMO)
        87                         -0.2504817              -6.8160 (LUMO)
        88                         -0.2439265              -6.6376
        89                         -0.2317335              -6.3058
        90                         -0.2211806              -6.0186
        91                         -0.2102610              -5.7215
        92                         -0.1818509              -4.9484
        93                         -0.1582724              -4.3068
        94                         -0.1312493              -3.5715
        95                         -0.1213044              -3.3009
        96                         -0.1069706              -2.9108
        97                         -0.0886774              -2.4130
       ...                                ...                  ...
       171                          2.5348633              68.9771
      -------------------------------------------------------------
                  HL-Gap            0.0562765 Eh            1.5314 eV
             Fermi-level           -0.2936011 Eh           -7.9893 eV

     #   Z          covCN         q      C6AA      α(0)
     1   6 C        3.637     0.031    20.417     6.500
     2   8 O        2.297    -0.177    16.949     5.560
     3   6 C        2.946     0.121    25.342     8.256
     4   6 C        2.916    -0.075    29.860     8.961
     5   6 C        2.924    -0.037    28.915     8.818
     6   6 C        2.916    -0.034    28.850     8.808
     7   6 C        2.069    -0.111    34.004     9.420
     8   6 C        2.921    -0.012    28.309     8.725
     9  15 P        4.542     0.046   158.215    22.595
    10   6 C        3.849     0.035    19.959     6.355
    11   6 C        3.838    -0.118    22.726     6.782
    12   6 C        3.877    -0.123    22.802     6.789
    13   6 C        3.850    -0.117    22.707     6.778
    14  77 Ir       2.604     0.005   303.161    31.966
    15  15 P        4.692     0.068   157.247    22.526
    16   6 C        3.848     0.023    20.150     6.385
    17   6 C        3.864    -0.122    22.790     6.789
    18   6 C        3.875    -0.114    22.635     6.765
    19   6 C        3.806    -0.109    22.570     6.763
    20   6 C        2.942    -0.063    29.555     8.916
    21   6 C        2.913     0.136    25.030     8.204
    22   8 O        1.746    -0.225    17.716     5.683
    23   6 C        3.642     0.033    20.372     6.490
    24   6 C        2.917    -0.081    30.027     8.986
    25   6 C        2.926    -0.033    28.817     8.803
    26   6 C        2.913    -0.069    29.722     8.940
    27   6 C        3.113     0.150    24.601     8.125
    28   8 O        1.745    -0.267    18.421     5.795
    29   6 C        3.744     0.071    19.468     6.294
    30   6 C        3.659     0.181    17.958     6.081
    31   8 O        0.865    -0.628    26.806     6.942
    32   1 H        0.924     0.055     2.255     2.348
    33   1 H        0.924     0.060     2.198     2.319
    34   1 H        0.924     0.080     1.982     2.202
    35   1 H        0.926     0.040     2.442     2.444
    36   1 H        0.925     0.034     2.529     2.487
    37   1 H        0.926     0.029     2.597     2.520
    38   1 H        0.925     0.071     2.072     2.251
    39   1 H        0.925     0.044     2.390     2.418
    40   1 H        0.924     0.052     2.300     2.372
    41   1 H        0.925     0.058     2.222     2.331
    42   1 H        0.925     0.054     2.272     2.357
    43   1 H        0.925     0.056     2.246     2.344
    44   1 H        0.925     0.053     2.277     2.360
    45   1 H        0.924     0.058     2.225     2.333
    46   1 H        0.925     0.042     2.418     2.432
    47   1 H        0.925     0.051     2.310     2.377
    48   1 H        0.925     0.059     2.205     2.322
    49   1 H        0.925     0.059     2.208     2.324
    50   1 H        0.924     0.058     2.222     2.331
    51   1 H        0.925     0.048     2.350     2.397
    52   1 H        0.925     0.056     2.251     2.346
    53   1 H        0.925     0.048     2.343     2.394
    54   1 H        0.925     0.043     2.410     2.427
    55   1 H        0.925     0.054     2.271     2.357
    56   1 H        0.925     0.073     2.049     2.239
    57   1 H        0.924     0.053     2.285     2.364
    58   1 H        0.924     0.050     2.319     2.382
    59   1 H        0.926     0.049     2.326     2.385
    60   1 H        0.926     0.050     2.322     2.383
    61   1 H        0.926     0.049     2.331     2.388
    62   1 H        0.924     0.059     2.214     2.327
    63   1 H        0.919    -0.032     3.688     3.004

 Mol. C6AA /au·bohr⁶  :      51806.170372
 Mol. C8AA /au·bohr⁸  :    1577215.763506
 Mol. α(0) /au        :        361.062260


Wiberg/Mayer (AO) data.
largest (>0.10) Wiberg bond orders for each atom

 ---------------------------------------------------------------------------
     #   Z sym  total        # sym  WBO       # sym  WBO       # sym  WBO
 ---------------------------------------------------------------------------
     1   6 C    3.923 --    33 H    0.976    32 H    0.976    34 H    0.969
                             2 O    0.955
     2   8 O    2.461 --     3 C    0.989     1 C    0.955    14 Ir   0.344
     3   6 C    3.879 --     4 C    1.406     8 C    1.282     2 O    0.989
     4   6 C    3.978 --     5 C    1.416     3 C    1.406    35 H    0.960
     5   6 C    3.936 --     6 C    1.423     4 C    1.416    36 H    0.965
     6   6 C    3.954 --     5 C    1.423     7 C    1.415    37 H    0.964
     7   6 C    3.164 --     8 C    1.426     6 C    1.415
     8   6 C    3.954 --     7 C    1.426     3 C    1.282     9 P    0.964
     9  15 P    4.281 --    14 Ir   1.168     8 C    0.964    10 C    0.901
                            30 C    0.678    31 O    0.142
    10   6 C    3.981 --    11 C    0.989    13 C    0.989    12 C    0.988
                             9 P    0.901
    11   6 C    3.979 --    10 C    0.989    39 H    0.977    38 H    0.969
                            40 H    0.958
    12   6 C    3.991 --    10 C    0.988    42 H    0.980    43 H    0.974
                            41 H    0.968
    13   6 C    3.994 --    10 C    0.989    46 H    0.980    44 H    0.979
                            45 H    0.968
    14  77 Ir   3.281 --     9 P    1.168    15 P    1.051     2 O    0.344
                            22 O    0.144
    15  15 P    4.350 --    14 Ir   1.051    20 C    1.000    29 C    0.944
                            16 C    0.887
    16   6 C    3.982 --    19 C    0.992    17 C    0.990    18 C    0.990
                            15 P    0.887
    17   6 C    3.993 --    16 C    0.990    49 H    0.979    47 H    0.975
                            48 H    0.972
    18   6 C    3.993 --    16 C    0.990    52 H    0.979    51 H    0.978
                            50 H    0.969
    19   6 C    3.994 --    16 C    0.992    54 H    0.978    53 H    0.977
                            55 H    0.977
    20   6 C    3.972 --    21 C    1.331    27 C    1.310    15 P    1.000
    21   6 C    3.935 --    24 C    1.383    20 C    1.331    22 O    1.038
    22   8 O    2.344 --    21 C    1.038    23 C    0.966    14 Ir   0.144
    23   6 C    3.932 --    56 H    0.978    57 H    0.978    58 H    0.978
                            22 O    0.966
    24   6 C    3.979 --    25 C    1.416    21 C    1.383    59 H    0.965
    25   6 C    3.972 --    26 C    1.453    24 C    1.416    60 H    0.970
    26   6 C    3.983 --    25 C    1.453    27 C    1.352    61 H    0.967
    27   6 C    3.936 --    26 C    1.352    20 C    1.310    28 O    1.083
    28   8 O    2.261 --    27 C    1.083    29 C    0.947
    29   6 C    3.911 --    28 O    0.947    62 H    0.944    15 P    0.944
                            30 C    0.880
    30   6 C    3.963 --    31 O    1.342    63 H    0.903    29 C    0.880
                             9 P    0.678
    31   8 O    1.720 --    30 C    1.342     9 P    0.142
    32   1 H    0.996 --     1 C    0.976
    33   1 H    0.996 --     1 C    0.976
    34   1 H    0.993 --     1 C    0.969
    35   1 H    0.992 --     4 C    0.960
    36   1 H    0.988 --     5 C    0.965
    37   1 H    0.990 --     6 C    0.964
    38   1 H    0.995 --    11 C    0.969
    39   1 H    0.993 --    11 C    0.977
    40   1 H    0.997 --    11 C    0.958
    41   1 H    0.996 --    12 C    0.968
    42   1 H    0.996 --    12 C    0.980
    43   1 H    0.997 --    12 C    0.974
    44   1 H    0.994 --    13 C    0.979
    45   1 H    0.997 --    13 C    0.968
    46   1 H    0.998 --    13 C    0.980
    47   1 H    0.997 --    17 C    0.975
    48   1 H    0.996 --    17 C    0.972
    49   1 H    0.995 --    17 C    0.979
    50   1 H    0.996 --    18 C    0.969
    51   1 H    0.998 --    18 C    0.978
    52   1 H    0.996 --    18 C    0.979
    53   1 H    0.998 --    19 C    0.977
    54   1 H    0.998 --    19 C    0.978
    55   1 H    0.993 --    19 C    0.977
    56   1 H    0.994 --    23 C    0.978
    57   1 H    0.997 --    23 C    0.978
    58   1 H    0.997 --    23 C    0.978
    59   1 H    0.997 --    24 C    0.965
    60   1 H    0.997 --    25 C    0.970
    61   1 H    0.997 --    26 C    0.967
    62   1 H    0.995 --    29 C    0.944
    63   1 H    0.998 --    30 C    0.903
 ---------------------------------------------------------------------------

Topologies differ in total number of bonds
Writing topology from bond orders to xtbtopo.mol

molecular dipole:
                 x           y           z       tot (Debye)
 q only:        0.766       2.172      -5.043
   full:        1.838       1.713      -6.059      16.672
molecular quadrupole (traceless):
                xx          xy          yy          xz          yz          zz
 q only:       17.070      -7.503       7.421      10.207      22.234     -24.491
  q+dip:       21.574      -6.217       8.237      10.752      20.874     -29.812
   full:       20.899      -4.937       8.573      11.206      21.674     -29.473

           -------------------------------------------------
          |                Geometry Summary                 |
           -------------------------------------------------

      molecular mass/u    :      638.6729609
   center of mass at/Å    :       -0.5421509      -0.1384336       0.4444581
  moments of inertia/u·Å² :        0.3006577E+04   0.4432354E+04   0.4987220E+04
rotational constants/cm⁻¹ :        0.5606918E-02   0.3803314E-02   0.3380166E-02

 * 64 selected distances

     #   Z          #   Z                                           value/Å
     1   6 C        2   8 O                                       1.4179792
     2   8 O        3   6 C                                       1.3888660
     3   6 C        4   6 C                                       1.3865761
     4   6 C        5   6 C                                       1.3887229
     5   6 C        6   6 C                                       1.3876019
     6   6 C        7   6 C                                       1.3773176
     3   6 C        8   6 C                                       1.4094306
     7   6 C        8   6 C                                       1.3706002
     8   6 C        9  15 P                                       1.8220311
     9  15 P       10   6 C                                       1.8734506
    10   6 C       11   6 C                                       1.5238839
    10   6 C       12   6 C                                       1.5267780
    10   6 C       13   6 C                                       1.5282578
     9  15 P       14  77 Ir                                      2.2462577 (max)
    14  77 Ir      15  15 P                                       2.2235639
    15  15 P       16   6 C                                       1.8862639
    16   6 C       17   6 C                                       1.5277573
    16   6 C       18   6 C                                       1.5280655
    16   6 C       19   6 C                                       1.5249909
    15  15 P       20   6 C                                       1.7961508
    20   6 C       21   6 C                                       1.3886187
    21   6 C       22   8 O                                       1.3714429
    22   8 O       23   6 C                                       1.4145527
    21   6 C       24   6 C                                       1.3879906
    24   6 C       25   6 C                                       1.3919342
    25   6 C       26   6 C                                       1.3854102
    20   6 C       27   6 C                                       1.3933873
    26   6 C       27   6 C                                       1.3899402
    27   6 C       28   8 O                                       1.3507048
    15  15 P       29   6 C                                       1.8716565
    28   8 O       29   6 C                                       1.4303859
    30   6 C       31   8 O                                       1.2761053
     1   6 C       32   1 H                                       1.0948096
     1   6 C       33   1 H                                       1.0936602
     1   6 C       34   1 H                                       1.0905970
     4   6 C       35   1 H                                       1.0791260
     5   6 C       36   1 H                                       1.0814701
     6   6 C       37   1 H                                       1.0810169
    11   6 C       38   1 H                                       1.0888928
    11   6 C       39   1 H                                       1.0890698
    11   6 C       40   1 H                                       1.0914813
    12   6 C       41   1 H                                       1.0892331
    12   6 C       42   1 H                                       1.0886619
    12   6 C       43   1 H                                       1.0883578
    13   6 C       44   1 H                                       1.0886951
    13   6 C       45   1 H                                       1.0904296
    13   6 C       46   1 H                                       1.0888661
    17   6 C       47   1 H                                       1.0887603
    17   6 C       48   1 H                                       1.0891456
    17   6 C       49   1 H                                       1.0886658
    18   6 C       50   1 H                                       1.0902388
    18   6 C       51   1 H                                       1.0886585
    18   6 C       52   1 H                                       1.0885771
    19   6 C       53   1 H                                       1.0880878
    19   6 C       54   1 H                                       1.0893536
    19   6 C       55   1 H                                       1.0894355
    23   6 C       56   1 H                                       1.0889600
    23   6 C       57   1 H                                       1.0931858
    23   6 C       58   1 H                                       1.0944515
    24   6 C       59   1 H                                       1.0781486
    25   6 C       60   1 H                                       1.0798850
    26   6 C       61   1 H                                       1.0779876 (min)
    29   6 C       62   1 H                                       1.0946528
    30   6 C       63   1 H                                       1.1256295

 * 5 distinct bonds (by element types)

   Z      Z             #   av. dist./Å        max./Å        min./Å
   1 H    6 C          32     1.0893185     1.1256295     1.0779876
   6 C    6 C          18     1.4342924     1.5282578     1.3706002
   6 C    8 O           7     1.3785767     1.4303859     1.2761053
   6 C   15 P           5     1.8499106     1.8862639     1.7961508
  15 P   77 Ir          2     2.2349108     2.2462577     2.2235639


optimized geometry written to: xtbopt.xyz


           -------------------------------------------------
          | TOTAL ENERGY              -92.832820866735 Eh   |
          | GRADIENT NORM               0.000074692447 Eh/α |
          | HOMO-LUMO GAP               1.531362090771 eV   |
           -------------------------------------------------

------------------------------------------------------------------------
 * finished run on 2022/10/30 at 20:48:36.317     
------------------------------------------------------------------------
 total:
 * wall-time:     0 d,  0 h,  0 min,  7.930 sec
 *  cpu-time:     0 d,  0 h,  1 min,  1.828 sec
 * ratio c/w:     7.797 speedup
 SCF:
 * wall-time:     0 d,  0 h,  0 min,  0.190 sec
 *  cpu-time:     0 d,  0 h,  0 min,  1.387 sec
 * ratio c/w:     7.321 speedup
 ANC optimizer:
 * wall-time:     0 d,  0 h,  0 min,  7.408 sec
 *  cpu-time:     0 d,  0 h,  0 min, 58.888 sec
 * ratio c/w:     7.949 speedup

