      -----------------------------------------------------------      
     |                   =====================                   |     
     |                           x T B                           |     
     |                   =====================                   |     
     |                         S. Grimme                         |     
     |          Mulliken Center for Theoretical Chemistry        |     
     |                    University of Bonn                     |     
      -----------------------------------------------------------      

   * xtb version 6.5.1 (b24c23e) compiled by 'conda@728c89f4b128' on 2022-07-12

   xtb is free software: you can redistribute it and/or modify it under
   the terms of the GNU Lesser General Public License as published by
   the Free Software Foundation, either version 3 of the License, or
   (at your option) any later version.
   
   xtb is distributed in the hope that it will be useful,
   but WITHOUT ANY WARRANTY; without even the implied warranty of
   MERCHANTABILITY or FITNESS FOR A PARTICULAR PURPOSE.  See the
   GNU Lesser General Public License for more details.
   
   Cite this work as:
   * C. Bannwarth, E. Caldeweyher, S. Ehlert, A. Hansen, P. Pracht,
     J. Seibert, S. Spicher, S. Grimme, WIREs Comput. Mol. Sci., 2020, 11,
     e01493. DOI: 10.1002/wcms.1493
   
   for GFN2-xTB:
   * C. Bannwarth, S. Ehlert and S. Grimme., J. Chem. Theory Comput., 2019,
     15, 1652-1671. DOI: 10.1021/acs.jctc.8b01176
   for GFN1-xTB:
   * S. Grimme, C. Bannwarth, P. Shushkov, J. Chem. Theory Comput., 2017,
     13, 1989-2009. DOI: 10.1021/acs.jctc.7b00118
   for GFN0-xTB:
   * P. Pracht, E. Caldeweyher, S. Ehlert, S. Grimme, ChemRxiv, 2019, preprint.
     DOI: 10.26434/chemrxiv.8326202.v1
   for GFN-FF:
   * S. Spicher and S. Grimme, Angew. Chem. Int. Ed., 2020, 59, 15665-15673.
     DOI: 10.1002/anie.202004239
   
   for ALPB and GBSA implicit solvation:
   * S. Ehlert, M. Stahn, S. Spicher, S. Grimme, J. Chem. Theory Comput.,
     2021, 17, 4250-4261. DOI: 10.1021/acs.jctc.1c00471
   
   for DFT-D4:
   * E. Caldeweyher, C. Bannwarth and S. Grimme, J. Chem. Phys., 2017,
     147, 034112. DOI: 10.1063/1.4993215
   * E. Caldeweyher, S. Ehlert, A. Hansen, H. Neugebauer, S. Spicher,
     C. Bannwarth and S. Grimme, J. Chem. Phys., 2019, 150, 154122.
     DOI: 10.1063/1.5090222
   * E. Caldeweyher, J.-M. Mewes, S. Ehlert and S. Grimme, Phys. Chem. Chem. Phys.
     2020, 22, 8499-8512. DOI: 10.1039/D0CP00502A
   
   for sTDA-xTB:
   * S. Grimme and C. Bannwarth, J. Chem. Phys., 2016, 145, 054103.
     DOI: 10.1063/1.4959605
   
   in the mass-spec context:
   * V. Asgeirsson, C. Bauer and S. Grimme, Chem. Sci., 2017, 8, 4879.
     DOI: 10.1039/c7sc00601b
   * J. Koopman and S. Grimme, ACS Omega 2019, 4, 12, 15120-15133.
     DOI: 10.1021/acsomega.9b02011
   
   for metadynamics refer to:
   * S. Grimme, J. Chem. Theory Comput., 2019, 155, 2847-2862
     DOI: 10.1021/acs.jctc.9b00143
   
   for SPH calculations refer to:
   * S. Spicher and S. Grimme, J. Chem. Theory Comput., 2021, 17, 1701-1714
     DOI: 10.1021/acs.jctc.0c01306
   
   with help from (in alphabetical order)
   P. Atkinson, C. Bannwarth, F. Bohle, G. Brandenburg, E. Caldeweyher
   M. Checinski, S. Dohm, S. Ehlert, S. Ehrlich, I. Gerasimov, C. Hölzer
   A. Katbashev, J. Koopman, C. Lavigne, S. Lehtola, F. März, M. Müller,
   F. Musil, H. Neugebauer, J. Pisarek, C. Plett, P. Pracht, F. Pultar,
   J. Seibert, P. Shushkov, S. Spicher, M. Stahn, M. Steiner, T. Strunk,
   J. Stückrath, T. Rose, and J. Unsleber
   
 * started run on 2022/11/14 at 22:11:23.808     

           -------------------------------------------------
          |                Calculation Setup                |
           -------------------------------------------------

          program call               : xtb 3_5_trifluoro_methyl_phenyl.xyz --gfn2 --chrg 0 --uhf 1 --alpb ch2cl2 --opt 1
          coordinate file            : 3_5_trifluoro_methyl_phenyl.xyz
          omp threads                :                     8

   ID    Z sym.   atoms
    1    6 C      1-6, 10, 11
    2    1 H      7-9
    3    9 F      12-17

           -------------------------------------------------
          |                 G F N 2 - x T B                 |
           -------------------------------------------------

        Reference                      10.1021/acs.jctc.8b01176
      * Hamiltonian:
        H0-scaling (s, p, d)           1.850000    2.230000    2.230000
        zeta-weighting                 0.500000
      * Dispersion:
        s8                             2.700000
        a1                             0.520000
        a2                             5.000000
        s9                             5.000000
      * Repulsion:
        kExp                           1.500000    1.000000
        rExp                           1.000000
      * Coulomb:
        alpha                          2.000000
        third order                    shell-resolved
        anisotropic                    true
        a3                             3.000000
        a5                             4.000000
        cn-shift                       1.200000
        cn-exp                         4.000000
        max-rad                        5.000000

      * Solvation model:               ALPB
        Solvent                        ch2cl2
        Parameter file                 internal GFN2-xTB/ALPB
        Dielectric constant                8.9300E+00
        Reference state                gsolv [1 M gas/solution]
        Free energy shift                  4.1487E-03 Eh       2.6033E+00 kcal/mol
        Temperature                        2.9815E+02 K
        Density                            1.3300E+00 kg/L
        Solvent mass                       8.4930E+01 g/mol
        Interaction kernel             P16
        Born radius scaling (c1)           1.5691E+00
        Born radii integrator          GBOBC
        Born offset                        0.0000E+00 a0       0.0000E+00 AA
        H-bond correction              false
        Ion screening                  false
        Surface tension                    1.0000E-05 Eh       1.5569E+01 dyn/cm
        Grid points                               230 per atom

          ...................................................
          :                      SETUP                      :
          :.................................................:
          :  # basis functions                  59          :
          :  # atomic orbitals                  59          :
          :  # shells                           31          :
          :  # electrons                        77          :
          :  max. iterations                   250          :
          :  Hamiltonian                  GFN2-xTB          :
          :  restarted?                      false          :
          :  GBSA solvation                   true          :
          :  PC potential                    false          :
          :  electronic temp.          300.0000000     K    :
          :  accuracy                    1.0000000          :
          :  -> integral cutoff          0.2500000E+02      :
          :  -> integral neglect         0.1000000E-07      :
          :  -> SCF convergence          0.1000000E-05 Eh   :
          :  -> wf. convergence          0.1000000E-03 e    :
          :  Broyden damping             0.4000000          :
          ...................................................

 iter      E             dE          RMSdq      gap      omega  full diag
   1    -47.1874146 -0.471874E+02  0.566E+00    2.56       0.0  T
   2    -47.2850456 -0.976311E-01  0.327E+00    2.55       1.0  T
   3    -47.2882680 -0.322235E-02  0.143E+00    2.56       1.0  T
   4    -47.2913749 -0.310694E-02  0.172E-01    2.56       1.0  T
   5    -47.2914948 -0.119849E-03  0.932E-02    2.53       1.0  T
   6    -47.2915498 -0.550714E-04  0.299E-02    2.55       1.0  T
   7    -47.2915496  0.232576E-06  0.122E-02    2.54       2.0  T
   8    -47.2915514 -0.174794E-05  0.405E-03    2.54       6.0  T
   9    -47.2915514 -0.685221E-07  0.194E-03    2.54      12.5  T
  10    -47.2915515 -0.594687E-07  0.351E-04    2.54      69.2  T
  11    -47.2915515 -0.134369E-08  0.141E-04    2.54     172.1  T

   *** convergence criteria satisfied after 11 iterations ***

         #    Occupation            Energy/Eh            Energy/eV
      -------------------------------------------------------------
         1        2.0000           -0.8969484             -24.4072
       ...           ...                  ...                  ...
        33        2.0000           -0.5241559             -14.2630
        34        2.0000           -0.5149628             -14.0129
        35        2.0000           -0.5065644             -13.7843
        36        2.0000           -0.4790408             -13.0354
        37        2.0000           -0.4679137             -12.7326
        38        2.0000           -0.4576747             -12.4540
        39        1.0000           -0.3866334             -10.5208 (HOMO)
        40                         -0.2931653              -7.9774 (LUMO)
        41                         -0.2846907              -7.7468
        42                         -0.1650368              -4.4909
        43                         -0.0292323              -0.7955
        44                          0.0022228               0.0605
       ...                                ...                  ...
        59                          0.5498353              14.9618
      -------------------------------------------------------------
                  HL-Gap            0.0934681 Eh            2.5434 eV
             Fermi-level           -0.3810267 Eh          -10.3683 eV

 SCC (total)                   0 d,  0 h,  0 min,  1.807 sec
 SCC setup                      ...        0 min,  0.021 sec (  1.161%)
 Dispersion                     ...        0 min,  0.020 sec (  1.079%)
 classical contributions        ...        0 min,  0.012 sec (  0.659%)
 integral evaluation            ...        0 min,  0.011 sec (  0.590%)
 iterations                     ...        0 min,  1.502 sec ( 83.124%)
 molecular gradient             ...        0 min,  0.242 sec ( 13.367%)
 printout                       ...        0 min,  0.000 sec (  0.015%)

         :::::::::::::::::::::::::::::::::::::::::::::::::::::
         ::                     SUMMARY                     ::
         :::::::::::::::::::::::::::::::::::::::::::::::::::::
         :: total energy             -46.965698617050 Eh    ::
         :: total w/o Gsasa/hb       -46.960116962735 Eh    ::
         :: gradient norm              0.086935060141 Eh/a0 ::
         :: HOMO-LUMO gap              2.543396568134 eV    ::
         ::.................................................::
         :: SCC energy               -47.291551486980 Eh    ::
         :: -> isotropic ES            0.085270044955 Eh    ::
         :: -> anisotropic ES         -0.001214946464 Eh    ::
         :: -> anisotropic XC         -0.025891877008 Eh    ::
         :: -> dispersion             -0.014952160515 Eh    ::
         :: -> Gsolv                  -0.009390468556 Eh    ::
         ::    -> Gelec               -0.003808814241 Eh    ::
         ::    -> Gsasa               -0.009730351676 Eh    ::
         ::    -> Ghb                  0.000000000000 Eh    ::
         ::    -> Gshift               0.004148697361 Eh    ::
         :: repulsion energy           0.325808439670 Eh    ::
         :: add. restraining           0.000000000000 Eh    ::
         :: total charge               0.000000000000 e     ::
         :::::::::::::::::::::::::::::::::::::::::::::::::::::

      ----------------------------------------------------------- 
     |                   =====================                   |
     |                        A N C O P T                        |
     |                   =====================                   |
     |               Approximate Normal Coordinate               |
     |                Rational Function Optimizer                |
      ----------------------------------------------------------- 

          ...................................................
          :                      SETUP                      :
          :.................................................:
          :   optimization level             tight          :
          :   max. optcycles                   200          :
          :   ANC micro-cycles                  20          :
          :   degrees of freedom                45          :
          :.................................................:
          :   RF solver                   davidson          :
          :   write xtbopt.log                true          :
          :   linear?                        false          :
          :   energy convergence         0.1000000E-05 Eh   :
          :   grad. convergence          0.8000000E-03 Eh/α :
          :   maximium RF displ.         1.0000000          :
          :   Hlow (freq-cutoff)         0.1000000E-01      :
          :   Hmax (freq-cutoff)         5.0000000          :
          :   S6 in model hess.         20.0000000          :
          ...................................................

generating ANC from model Hessian ...
Using Lindh-Hessian (1995)
 Shifting diagonal of input Hessian by    6.5008063553318660E-003
 Lowest  eigenvalues of input Hessian
    0.000000    0.000000    0.000000    0.000000    0.000000    0.000000
    0.010000    0.010900    0.015359    0.016017    0.016478    0.026762
    0.029167    0.036717    0.041513    0.053495    0.057810    0.084293
 Highest eigenvalues
    1.694335    1.704118    1.706359    1.825007    1.883646    1.901106


........................................................................
.............................. CYCLE    1 ..............................
........................................................................
   1    -47.2915515 -0.472916E+02  0.169E-05    2.54       0.0  T
   2    -47.2915515 -0.145661E-11  0.923E-06    2.54    2627.4  T
   3    -47.2915515 -0.248690E-12  0.579E-06    2.54    4191.8  T
     SCC iter.                  ...        0 min,  0.643 sec
     gradient                   ...        0 min,  0.439 sec
 * total energy  :   -46.9656986 Eh     change       -0.7796075E-10 Eh
   gradient norm :     0.0869306 Eh/α   predicted     0.0000000E+00 (-100.00%)
   displ. norm   :     0.1992276 α      lambda       -0.1326531E-01
   maximum displ.:     0.1495517 α      in ANC's #29, #10, #7, ...

........................................................................
.............................. CYCLE    2 ..............................
........................................................................
   1    -47.3255079 -0.473255E+02  0.236E-01    2.34       0.0  T
   2    -47.3255529 -0.449495E-04  0.142E-01    2.33       1.0  T
   3    -47.3255307  0.221462E-04  0.701E-02    2.36       1.0  T
   4    -47.3255661 -0.353532E-04  0.138E-02    2.34       1.8  T
   5    -47.3255670 -0.944598E-06  0.620E-03    2.34       3.9  T
   6    -47.3255671 -0.125408E-06  0.264E-03    2.34       9.2  T
   7    -47.3255671 -0.210210E-07  0.106E-03    2.34      22.8  T
   8    -47.3255672 -0.980839E-08  0.311E-04    2.34      77.9  T
   9    -47.3255672 -0.177408E-09  0.178E-04    2.34     136.6  T
     SCC iter.                  ...        0 min,  1.161 sec
     gradient                   ...        0 min,  0.070 sec
 * total energy  :   -46.9744112 Eh     change       -0.8712559E-02 Eh
   gradient norm :     0.0352062 Eh/α   predicted    -0.6895922E-02 ( -20.85%)
   displ. norm   :     0.1068257 α      lambda       -0.2756591E-02
   maximum displ.:     0.0852601 α      in ANC's #29, #5, #4, ...

........................................................................
.............................. CYCLE    3 ..............................
........................................................................
   1    -47.3379027 -0.473379E+02  0.189E-01    2.16       0.0  T
   2    -47.3379201 -0.174003E-04  0.112E-01    2.16       1.0  T
   3    -47.3379063  0.138374E-04  0.493E-02    2.17       1.0  T
   4    -47.3379254 -0.191557E-04  0.713E-03    2.16       3.4  T
   5    -47.3379257 -0.321106E-06  0.324E-03    2.16       7.5  T
   6    -47.3379258 -0.168846E-07  0.133E-03    2.16      18.2  T
   7    -47.3379258 -0.714023E-08  0.527E-04    2.16      46.0  T
   8    -47.3379258 -0.143184E-08  0.135E-04    2.16     179.2  T
     SCC iter.                  ...        0 min,  0.924 sec
     gradient                   ...        0 min,  0.055 sec
 * total energy  :   -46.9758125 Eh     change       -0.1401370E-02 Eh
   gradient norm :     0.0074850 Eh/α   predicted    -0.1394022E-02 (  -0.52%)
   displ. norm   :     0.0403074 α      lambda       -0.9147270E-04
   maximum displ.:     0.0204293 α      in ANC's #4, #5, #3, ...

........................................................................
.............................. CYCLE    4 ..............................
........................................................................
   1    -47.3365797 -0.473366E+02  0.353E-02    2.14       0.0  T
   2    -47.3365801 -0.350416E-06  0.206E-02    2.14       1.2  T
   3    -47.3365795  0.599080E-06  0.866E-03    2.14       2.8  T
   4    -47.3365803 -0.770427E-06  0.914E-04    2.14      26.5  T
   5    -47.3365803 -0.264729E-08  0.491E-04    2.14      49.4  T
     SCC iter.                  ...        0 min,  0.524 sec
     gradient                   ...        0 min,  0.110 sec
 * total energy  :   -46.9758773 Eh     change       -0.6474045E-04 Eh
   gradient norm :     0.0036543 Eh/α   predicted    -0.4581071E-04 ( -29.24%)
   displ. norm   :     0.0472352 α      lambda       -0.3969682E-04
   maximum displ.:     0.0249451 α      in ANC's #5, #4, #1, ...

........................................................................
.............................. CYCLE    5 ..............................
........................................................................
   1    -47.3358842 -0.473359E+02  0.300E-02    2.12       0.0  T
   2    -47.3358845 -0.298389E-06  0.177E-02    2.12       1.4  T
   3    -47.3358841  0.409200E-06  0.706E-03    2.12       3.4  T
   4    -47.3358846 -0.549817E-06  0.110E-03    2.12      22.0  T
   5    -47.3358846 -0.180601E-08  0.470E-04    2.12      51.6  T
   6    -47.3358846 -0.203368E-08  0.156E-04    2.12     155.0  T
     SCC iter.                  ...        0 min,  0.504 sec
     gradient                   ...        0 min,  0.048 sec
 * total energy  :   -46.9759006 Eh     change       -0.2326964E-04 Eh
   gradient norm :     0.0018435 Eh/α   predicted    -0.1989349E-04 ( -14.51%)
   displ. norm   :     0.0290926 α      lambda       -0.5602228E-05
   maximum displ.:     0.0145186 α      in ANC's #1, #3, #4, ...

........................................................................
.............................. CYCLE    6 ..............................
........................................................................
   1    -47.3359976 -0.473360E+02  0.148E-02    2.12       0.0  T
   2    -47.3359977 -0.125694E-06  0.890E-03    2.12       2.7  T
   3    -47.3359977  0.233203E-07  0.232E-03    2.12      10.4  T
   4    -47.3359977 -0.541717E-07  0.888E-04    2.12      27.3  T
   5    -47.3359977 -0.442348E-08  0.217E-04    2.12     111.5  T
     SCC iter.                  ...        0 min,  0.442 sec
     gradient                   ...        0 min,  0.065 sec
 * total energy  :   -46.9759055 Eh     change       -0.4920806E-05 Eh
   gradient norm :     0.0011571 Eh/α   predicted    -0.2802018E-05 ( -43.06%)
   displ. norm   :     0.0108526 α      lambda       -0.1874565E-05
   maximum displ.:     0.0071664 α      in ANC's #1, #3, #2, ...

........................................................................
.............................. CYCLE    7 ..............................
........................................................................
   1    -47.3362286 -0.473362E+02  0.773E-03    2.13       0.0  T
   2    -47.3362286 -0.318385E-07  0.453E-03    2.13       5.4  T
   3    -47.3362286  0.129417E-07  0.172E-03    2.13      14.1  T
   4    -47.3362286 -0.226369E-07  0.452E-04    2.13      53.6  T
   5    -47.3362286 -0.511569E-09  0.677E-05    2.13     358.3  T
     SCC iter.                  ...        0 min,  0.372 sec
     gradient                   ...        0 min,  0.041 sec
 * total energy  :   -46.9759071 Eh     change       -0.1609968E-05 Eh
   gradient norm :     0.0003286 Eh/α   predicted    -0.9353345E-06 ( -41.90%)
   displ. norm   :     0.0070159 α      lambda       -0.3539037E-06
   maximum displ.:     0.0045850 α      in ANC's #1, #3, #5, ...

........................................................................
.............................. CYCLE    8 ..............................
........................................................................
   1    -47.3362188 -0.473362E+02  0.385E-03    2.13       0.0  T
   2    -47.3362188 -0.643634E-08  0.230E-03    2.13      10.5  T
   3    -47.3362188  0.177911E-08  0.647E-04    2.13      37.5  T
   4    -47.3362188 -0.399889E-08  0.188E-04    2.13     129.2  T
     SCC iter.                  ...        0 min,  0.332 sec
     gradient                   ...        0 min,  0.020 sec
 * total energy  :   -46.9759074 Eh     change       -0.3044071E-06 Eh
   gradient norm :     0.0002070 Eh/α   predicted    -0.1776007E-06 ( -41.66%)
   displ. norm   :     0.0082973 α      lambda       -0.2461271E-06
   maximum displ.:     0.0052037 α      in ANC's #3, #1, #5, ...

   *** GEOMETRY OPTIMIZATION CONVERGED AFTER 8 ITERATIONS ***

------------------------------------------------------------------------
 total energy gain   :        -0.0102088 Eh       -6.4061 kcal/mol
 total RMSD          :         0.0821184 a0        0.0435 Å
 total power (kW/mol):        -3.3503919 (step)   -4.0712 (real)
------------------------------------------------------------------------

 ANCopt (total)                0 d,  0 h,  0 min,  6.584 sec
 optimizer setup                ...        0 min,  0.001 sec (  0.008%)
 model hessian                  ...        0 min,  0.020 sec (  0.311%)
 ANC generation                 ...        0 min,  0.002 sec (  0.024%)
 coordinate transformation      ...        0 min,  0.000 sec (  0.002%)
 single point calculation       ...        0 min,  6.462 sec ( 98.151%)
 optimization log               ...        0 min,  0.025 sec (  0.375%)
 hessian update                 ...        0 min,  0.071 sec (  1.081%)
 rational function              ...        0 min,  0.002 sec (  0.034%)

================
 final structure:
================
17
 xtb: 6.5.1 (b24c23e)
C            0.02781689397963        0.00182240374187        0.00063913631230
C            1.42574025795996       -0.00359193227298        0.00939635810180
C            2.03543734615323        1.21453619291798        0.00210676116817
C            1.41124626763857        2.42408566367800       -0.01230710120299
C            0.01168364251175        2.40333271255222       -0.02276259421253
C           -0.67669347170811        1.19889806365232       -0.01302386884468
H            1.97508585777494       -0.93257500082509        0.02015575084124
H            1.94830713776942        3.36031956096885       -0.02104027547524
H           -1.75722804380031        1.18975318076730       -0.02136915653474
C           -0.75337547855604        3.70074032562698       -0.00493233710934
C           -0.75051398375144       -1.28798245569289        0.00343246353189
F           -1.93597718898395        3.61458742026897       -0.63221880777011
F           -0.08478551350857        4.70713534979075       -0.58481320023057
F           -1.02512117365195        4.10725060505235        1.25145875728382
F           -1.52574282723411       -1.41215749872435       -1.09018514922197
F           -1.58282980730432       -1.37358459834287        1.05771909575125
F            0.02515776471132       -2.37676095315941        0.04323368761168

 Bond Distances (Angstroems)
 ---------------------------
C1-C2=1.3980         C1-C6=1.3891         C1-C11=1.5065        C2-C1=1.3980         C2-C3=1.3622         C2-H7=1.0793         
C3-C2=1.3622         C3-C4=1.3612         C4-C3=1.3612         C4-C5=1.3998         C4-H8=1.0794         C5-C4=1.3998         
C5-C6=1.3873         C5-C10=1.5063        C6-C1=1.3891         C6-C5=1.3873         C6-H9=1.0806         H7-C2=1.0793         
H8-C4=1.0794         H9-C6=1.0806         C10-C5=1.5063        C10-F12=1.3414       C10-F13=1.3402       C10-F14=1.3482       
C11-C1=1.5065        C11-F15=1.3463       C11-F16=1.3460       C11-F17=1.3374       F12-C10=1.3414       F13-C10=1.3402       
F14-C10=1.3482       F15-C11=1.3463       F16-C11=1.3460       F17-C11=1.3374       
 C  H  Rav=1.0798 sigma=0.0006  Rmin=1.0793  Rmax=1.0806     3
 C  C  Rav=1.4138 sigma=0.0551  Rmin=1.3612  Rmax=1.5065     8
 F  C  Rav=1.3432 sigma=0.0038  Rmin=1.3374  Rmax=1.3482     6

 selected bond angles (degree)
 --------------------
C6-C1-C2=120.70                C11-C1-C2=120.89               C11-C1-C6=118.41               C3-C2-C1=116.36                
H7-C2-C1=120.82                H7-C2-C3=122.81                C4-C3-C2=126.12                C5-C4-C3=116.45                
H8-C4-C3=122.87                H8-C4-C5=120.68                C6-C5-C4=120.59                C10-C5-C4=119.67               
C10-C5-C6=119.71               C5-C6-C1=119.77                H9-C6-C1=120.00                H9-C6-C5=120.23                
F12-C10-C5=112.76              F13-C10-C5=112.85              F13-C10-F12=106.60             F14-C10-C5=111.91              
F14-C10-F12=106.11             F14-C10-F13=106.10             

 selected dihedral angles (degree)
 ---------------------------------
C3-C2-C1-C6=359.92            C3-C2-C1-C11=179.82           H7-C2-C1-C6=179.99            H7-C2-C1-C11=359.89           
C4-C3-C2-C1=  0.03            C4-C3-C2-H7=179.95            C5-C4-C3-C2=359.89            H8-C4-C3-C2=180.22            
C6-C5-C4-C3=  0.26            C6-C5-C4-H8=179.93            C10-C5-C4-C3=178.51           C10-C5-C4-H8=358.18           
C5-C6-C1-C2=  0.22            C5-C6-C1-C11=180.33           H9-C6-C1-C2=179.90            H9-C6-C1-C11=  0.00           
C1-C6-C5-C4=359.68            C1-C6-C5-C10=181.43           H9-C6-C5-C4=180.01            H9-C6-C5-C10=  1.76           
F12-C10-C5-C4=150.07          F12-C10-C5-C6=328.34          F13-C10-C5-C4= 29.21          F13-C10-C5-C6=207.48          
F14-C10-C5-C4=269.61          F14-C10-C5-C6= 87.89          
           -------------------------------------------------
          |                Final Singlepoint                |
           -------------------------------------------------

          ...................................................
          :                      SETUP                      :
          :.................................................:
          :  # basis functions                  59          :
          :  # atomic orbitals                  59          :
          :  # shells                           31          :
          :  # electrons                        77          :
          :  max. iterations                   250          :
          :  Hamiltonian                  GFN2-xTB          :
          :  restarted?                      false          :
          :  GBSA solvation                   true          :
          :  PC potential                    false          :
          :  electronic temp.          300.0000000     K    :
          :  accuracy                    1.0000000          :
          :  -> integral cutoff          0.2500000E+02      :
          :  -> integral neglect         0.1000000E-07      :
          :  -> SCF convergence          0.1000000E-05 Eh   :
          :  -> wf. convergence          0.1000000E-03 e    :
          :  Broyden damping             0.4000000          :
          ...................................................

 iter      E             dE          RMSdq      gap      omega  full diag
   1    -47.3362188 -0.473362E+02  0.543E-05    2.13       0.0  T
   2    -47.3362188 -0.151559E-10  0.318E-05    2.13     763.0  T
   3    -47.3362188 -0.457590E-11  0.186E-05    2.13    1301.4  T

   *** convergence criteria satisfied after 3 iterations ***

         #    Occupation            Energy/Eh            Energy/eV
      -------------------------------------------------------------
         1        2.0000           -0.8993731             -24.4732
       ...           ...                  ...                  ...
        33        2.0000           -0.5299095             -14.4196
        34        2.0000           -0.5226393             -14.2217
        35        2.0000           -0.5133912             -13.9701
        36        2.0000           -0.4877008             -13.2710
        37        2.0000           -0.4733060             -12.8793
        38        2.0000           -0.4658620             -12.6767
        39        1.0000           -0.3788039             -10.3078 (HOMO)
        40                         -0.3005836              -8.1793 (LUMO)
        41                         -0.2837047              -7.7200
        42                         -0.1619300              -4.4063
        43                         -0.0080568              -0.2192
        44                          0.0198005               0.5388
       ...                                ...                  ...
        59                          0.5931799              16.1412
      -------------------------------------------------------------
                  HL-Gap            0.0782203 Eh            2.1285 eV
             Fermi-level           -0.3810133 Eh          -10.3679 eV

 SCC (total)                   0 d,  0 h,  0 min,  0.312 sec
 SCC setup                      ...        0 min,  0.000 sec (  0.080%)
 Dispersion                     ...        0 min,  0.000 sec (  0.028%)
 classical contributions        ...        0 min,  0.000 sec (  0.005%)
 integral evaluation            ...        0 min,  0.007 sec (  2.115%)
 iterations                     ...        0 min,  0.280 sec ( 89.653%)
 molecular gradient             ...        0 min,  0.025 sec (  8.056%)
 printout                       ...        0 min,  0.000 sec (  0.045%)

         :::::::::::::::::::::::::::::::::::::::::::::::::::::
         ::                     SUMMARY                     ::
         :::::::::::::::::::::::::::::::::::::::::::::::::::::
         :: total energy             -46.975907392215 Eh    ::
         :: total w/o Gsasa/hb       -46.970469746268 Eh    ::
         :: gradient norm              0.000205700260 Eh/a0 ::
         :: HOMO-LUMO gap              2.128482803095 eV    ::
         ::.................................................::
         :: SCC energy               -47.336218761816 Eh    ::
         :: -> isotropic ES            0.088969555719 Eh    ::
         :: -> anisotropic ES         -0.001907345508 Eh    ::
         :: -> anisotropic XC         -0.028847988710 Eh    ::
         :: -> dispersion             -0.014993456092 Eh    ::
         :: -> Gsolv                  -0.010147409072 Eh    ::
         ::    -> Gelec               -0.004709763124 Eh    ::
         ::    -> Gsasa               -0.009586343309 Eh    ::
         ::    -> Ghb                  0.000000000000 Eh    ::
         ::    -> Gshift               0.004148697361 Eh    ::
         :: repulsion energy           0.360268777676 Eh    ::
         :: add. restraining           0.000000000000 Eh    ::
         :: total charge              -0.000000000000 e     ::
         :::::::::::::::::::::::::::::::::::::::::::::::::::::

           -------------------------------------------------
          |                Property Printout                |
           -------------------------------------------------

    * Orbital Energies and Occupations

         #    Occupation            Energy/Eh            Energy/eV
      -------------------------------------------------------------
         1        2.0000           -0.8993731             -24.4732
       ...           ...                  ...                  ...
        27        2.0000           -0.5539022             -15.0724
        28        2.0000           -0.5527262             -15.0404
        29        2.0000           -0.5525488             -15.0356
        30        2.0000           -0.5520418             -15.0218
        31        2.0000           -0.5503256             -14.9751
        32        2.0000           -0.5412439             -14.7280
        33        2.0000           -0.5299095             -14.4196
        34        2.0000           -0.5226393             -14.2217
        35        2.0000           -0.5133912             -13.9701
        36        2.0000           -0.4877008             -13.2710
        37        2.0000           -0.4733060             -12.8793
        38        2.0000           -0.4658620             -12.6767
        39        1.0000           -0.3788039             -10.3078 (HOMO)
        40                         -0.3005836              -8.1793 (LUMO)
        41                         -0.2837047              -7.7200
        42                         -0.1619300              -4.4063
        43                         -0.0080568              -0.2192
        44                          0.0198005               0.5388
        45                          0.0288365               0.7847
        46                          0.0518053               1.4097
        47                          0.0596103               1.6221
        48                          0.0656957               1.7877
        49                          0.0754595               2.0534
        50                          0.1182781               3.2185
       ...                                ...                  ...
        59                          0.5931799              16.1412
      -------------------------------------------------------------
                  HL-Gap            0.0782203 Eh            2.1285 eV
             Fermi-level           -0.3810133 Eh          -10.3679 eV

     #   Z          covCN         q      C6AA      α(0)
     1   6 C        2.990    -0.009    28.237     8.717
     2   6 C        2.913    -0.001    28.042     8.683
     3   6 C        2.026    -0.016    31.441     9.056
     4   6 C        2.914    -0.000    28.033     8.682
     5   6 C        2.989    -0.009    28.234     8.716
     6   6 C        2.920    -0.019    28.477     8.751
     7   1 H        0.926     0.106     1.729     2.057
     8   1 H        0.926     0.104     1.747     2.067
     9   1 H        0.926     0.090     1.880     2.144
    10   6 C        3.335     0.491    17.228     6.576
    11   6 C        3.335     0.491    17.224     6.574
    12   9 F        0.791    -0.205    11.284     3.968
    13   9 F        0.791    -0.201    11.248     3.962
    14   9 F        0.791    -0.209    11.325     3.975
    15   9 F        0.791    -0.208    11.316     3.974
    16   9 F        0.791    -0.208    11.316     3.974
    17   9 F        0.791    -0.199    11.224     3.957

 Mol. C6AA /au·bohr⁶  :       4108.792113
 Mol. C8AA /au·bohr⁸  :      97717.863330
 Mol. α(0) /au        :         95.832378


Wiberg/Mayer (AO) data.
largest (>0.10) Wiberg bond orders for each atom

 ---------------------------------------------------------------------------
     #   Z sym  total        # sym  WBO       # sym  WBO       # sym  WBO
 ---------------------------------------------------------------------------
     1   6 C    3.925 --     6 C    1.420     2 C    1.364    11 C    0.944
                             4 C    0.110
     2   6 C    3.950 --     3 C    1.468     1 C    1.364     7 H    0.946
                             5 C    0.109
     3   6 C    3.103 --     4 C    1.475     2 C    1.468     6 C    0.108
     4   6 C    3.951 --     3 C    1.475     5 C    1.357     8 H    0.947
                             1 C    0.110
     5   6 C    3.925 --     6 C    1.427     4 C    1.357    10 C    0.945
                             2 C    0.109
     6   6 C    3.986 --     5 C    1.427     1 C    1.420     9 H    0.956
                             3 C    0.108
     7   1 H    0.974 --     2 C    0.946
     8   1 H    0.975 --     4 C    0.947
     9   1 H    0.984 --     6 C    0.956
    10   6 C    3.819 --    13 F    0.953    12 F    0.949     5 C    0.945
                            14 F    0.939
    11   6 C    3.819 --    17 F    0.957     1 C    0.944    16 F    0.942
                            15 F    0.942
    12   9 F    1.073 --    10 C    0.949
    13   9 F    1.077 --    10 C    0.953
    14   9 F    1.069 --    10 C    0.939
    15   9 F    1.069 --    11 C    0.942
    16   9 F    1.069 --    11 C    0.942
    17   9 F    1.080 --    11 C    0.957
 ---------------------------------------------------------------------------

Topologies differ in total number of bonds
Writing topology from bond orders to xtbtopo.mol

molecular dipole:
                 x           y           z       tot (Debye)
 q only:        1.440      -0.025      -0.034
   full:        1.283      -0.026      -0.035       3.264
molecular quadrupole (traceless):
                xx          xy          yy          xz          yz          zz
 q only:        6.876       4.721     -10.912       0.068      -0.375       4.036
  q+dip:        6.940       4.191      -8.177       0.073      -0.387       1.237
   full:        6.065       4.189     -10.299       0.059      -0.359       4.234

           -------------------------------------------------
          |                Geometry Summary                 |
           -------------------------------------------------

      molecular mass/u    :      213.1001284
   center of mass at/Å    :       -0.3822527       1.2089307       0.0018131
  moments of inertia/u·Å² :        0.3677918E+03   0.1320031E+04   0.1512367E+04
rotational constants/cm⁻¹ :        0.4583471E-01   0.1277063E-01   0.1114652E-01

 * 15 selected distances

     #   Z          #   Z                                           value/Å
     1   6 C        2   6 C                                       1.3979614
     2   6 C        3   6 C                                       1.3622115
     3   6 C        4   6 C                                       1.3611879
     4   6 C        5   6 C                                       1.3997557 (max)
     1   6 C        6   6 C                                       1.3890688
     5   6 C        6   6 C                                       1.3873071
     2   6 C        7   1 H                                       1.0793082 (min)
     4   6 C        8   1 H                                       1.0793724
     6   6 C        9   1 H                                       1.0806056
    10   6 C       12   9 F                                       1.3414387
    10   6 C       13   9 F                                       1.3401887
    10   6 C       14   9 F                                       1.3481896
    11   6 C       15   9 F                                       1.3462537
    11   6 C       16   9 F                                       1.3459562
    11   6 C       17   9 F                                       1.3374191

 * 3 distinct bonds (by element types)

   Z      Z             #   av. dist./Å        max./Å        min./Å
   1 H    6 C           3     1.0797621     1.0806056     1.0793082
   6 C    6 C           6     1.3829154     1.3997557     1.3611879
   6 C    9 F           6     1.3432410     1.3481896     1.3374191


optimized geometry written to: xtbopt.xyz


           -------------------------------------------------
          | TOTAL ENERGY              -46.975907392215 Eh   |
          | GRADIENT NORM               0.000205700260 Eh/α |
          | HOMO-LUMO GAP               2.128482803095 eV   |
           -------------------------------------------------

------------------------------------------------------------------------
 * finished run on 2022/11/14 at 22:11:32.672     
------------------------------------------------------------------------
 total:
 * wall-time:     0 d,  0 h,  0 min,  8.863 sec
 *  cpu-time:     0 d,  0 h,  0 min, 47.719 sec
 * ratio c/w:     5.384 speedup
 SCF:
 * wall-time:     0 d,  0 h,  0 min,  1.808 sec
 *  cpu-time:     0 d,  0 h,  0 min,  8.375 sec
 * ratio c/w:     4.633 speedup
 ANC optimizer:
 * wall-time:     0 d,  0 h,  0 min,  6.936 sec
 *  cpu-time:     0 d,  0 h,  0 min, 38.734 sec
 * ratio c/w:     5.585 speedup

