      -----------------------------------------------------------      
     |                   =====================                   |     
     |                           x T B                           |     
     |                   =====================                   |     
     |                         S. Grimme                         |     
     |          Mulliken Center for Theoretical Chemistry        |     
     |                    University of Bonn                     |     
      -----------------------------------------------------------      

   * xtb version 6.5.1 (b24c23e) compiled by 'conda@728c89f4b128' on 2022-07-12

   xtb is free software: you can redistribute it and/or modify it under
   the terms of the GNU Lesser General Public License as published by
   the Free Software Foundation, either version 3 of the License, or
   (at your option) any later version.
   
   xtb is distributed in the hope that it will be useful,
   but WITHOUT ANY WARRANTY; without even the implied warranty of
   MERCHANTABILITY or FITNESS FOR A PARTICULAR PURPOSE.  See the
   GNU Lesser General Public License for more details.
   
   Cite this work as:
   * C. Bannwarth, E. Caldeweyher, S. Ehlert, A. Hansen, P. Pracht,
     J. Seibert, S. Spicher, S. Grimme, WIREs Comput. Mol. Sci., 2020, 11,
     e01493. DOI: 10.1002/wcms.1493
   
   for GFN2-xTB:
   * C. Bannwarth, S. Ehlert and S. Grimme., J. Chem. Theory Comput., 2019,
     15, 1652-1671. DOI: 10.1021/acs.jctc.8b01176
   for GFN1-xTB:
   * S. Grimme, C. Bannwarth, P. Shushkov, J. Chem. Theory Comput., 2017,
     13, 1989-2009. DOI: 10.1021/acs.jctc.7b00118
   for GFN0-xTB:
   * P. Pracht, E. Caldeweyher, S. Ehlert, S. Grimme, ChemRxiv, 2019, preprint.
     DOI: 10.26434/chemrxiv.8326202.v1
   for GFN-FF:
   * S. Spicher and S. Grimme, Angew. Chem. Int. Ed., 2020, 59, 15665-15673.
     DOI: 10.1002/anie.202004239
   
   for ALPB and GBSA implicit solvation:
   * S. Ehlert, M. Stahn, S. Spicher, S. Grimme, J. Chem. Theory Comput.,
     2021, 17, 4250-4261. DOI: 10.1021/acs.jctc.1c00471
   
   for DFT-D4:
   * E. Caldeweyher, C. Bannwarth and S. Grimme, J. Chem. Phys., 2017,
     147, 034112. DOI: 10.1063/1.4993215
   * E. Caldeweyher, S. Ehlert, A. Hansen, H. Neugebauer, S. Spicher,
     C. Bannwarth and S. Grimme, J. Chem. Phys., 2019, 150, 154122.
     DOI: 10.1063/1.5090222
   * E. Caldeweyher, J.-M. Mewes, S. Ehlert and S. Grimme, Phys. Chem. Chem. Phys.
     2020, 22, 8499-8512. DOI: 10.1039/D0CP00502A
   
   for sTDA-xTB:
   * S. Grimme and C. Bannwarth, J. Chem. Phys., 2016, 145, 054103.
     DOI: 10.1063/1.4959605
   
   in the mass-spec context:
   * V. Asgeirsson, C. Bauer and S. Grimme, Chem. Sci., 2017, 8, 4879.
     DOI: 10.1039/c7sc00601b
   * J. Koopman and S. Grimme, ACS Omega 2019, 4, 12, 15120-15133.
     DOI: 10.1021/acsomega.9b02011
   
   for metadynamics refer to:
   * S. Grimme, J. Chem. Theory Comput., 2019, 155, 2847-2862
     DOI: 10.1021/acs.jctc.9b00143
   
   for SPH calculations refer to:
   * S. Spicher and S. Grimme, J. Chem. Theory Comput., 2021, 17, 1701-1714
     DOI: 10.1021/acs.jctc.0c01306
   
   with help from (in alphabetical order)
   P. Atkinson, C. Bannwarth, F. Bohle, G. Brandenburg, E. Caldeweyher
   M. Checinski, S. Dohm, S. Ehlert, S. Ehrlich, I. Gerasimov, C. Hölzer
   A. Katbashev, J. Koopman, C. Lavigne, S. Lehtola, F. März, M. Müller,
   F. Musil, H. Neugebauer, J. Pisarek, C. Plett, P. Pracht, F. Pultar,
   J. Seibert, P. Shushkov, S. Spicher, M. Stahn, M. Steiner, T. Strunk,
   J. Stückrath, T. Rose, and J. Unsleber
   
 * started run on 2022/11/14 at 22:12:22.140     

           -------------------------------------------------
          |                Calculation Setup                |
           -------------------------------------------------

          program call               : xtb naphtalenyl.xyz --gfn2 --chrg 0 --uhf 1 --alpb ch2cl2 --opt 1
          coordinate file            : naphtalenyl.xyz
          omp threads                :                     8

   ID    Z sym.   atoms
    1    6 C      1-7, 11, 14, 15
    2    1 H      8-10, 12, 13, 16, 17

           -------------------------------------------------
          |                 G F N 2 - x T B                 |
           -------------------------------------------------

        Reference                      10.1021/acs.jctc.8b01176
      * Hamiltonian:
        H0-scaling (s, p, d)           1.850000    2.230000    2.230000
        zeta-weighting                 0.500000
      * Dispersion:
        s8                             2.700000
        a1                             0.520000
        a2                             5.000000
        s9                             5.000000
      * Repulsion:
        kExp                           1.500000    1.000000
        rExp                           1.000000
      * Coulomb:
        alpha                          2.000000
        third order                    shell-resolved
        anisotropic                    true
        a3                             3.000000
        a5                             4.000000
        cn-shift                       1.200000
        cn-exp                         4.000000
        max-rad                        5.000000

      * Solvation model:               ALPB
        Solvent                        ch2cl2
        Parameter file                 internal GFN2-xTB/ALPB
        Dielectric constant                8.9300E+00
        Reference state                gsolv [1 M gas/solution]
        Free energy shift                  4.1487E-03 Eh       2.6033E+00 kcal/mol
        Temperature                        2.9815E+02 K
        Density                            1.3300E+00 kg/L
        Solvent mass                       8.4930E+01 g/mol
        Interaction kernel             P16
        Born radius scaling (c1)           1.5691E+00
        Born radii integrator          GBOBC
        Born offset                        0.0000E+00 a0       0.0000E+00 AA
        H-bond correction              false
        Ion screening                  false
        Surface tension                    1.0000E-05 Eh       1.5569E+01 dyn/cm
        Grid points                               230 per atom

          ...................................................
          :                      SETUP                      :
          :.................................................:
          :  # basis functions                  47          :
          :  # atomic orbitals                  47          :
          :  # shells                           27          :
          :  # electrons                        47          :
          :  max. iterations                   250          :
          :  Hamiltonian                  GFN2-xTB          :
          :  restarted?                      false          :
          :  GBSA solvation                   true          :
          :  PC potential                    false          :
          :  electronic temp.          300.0000000     K    :
          :  accuracy                    1.0000000          :
          :  -> integral cutoff          0.2500000E+02      :
          :  -> integral neglect         0.1000000E-07      :
          :  -> SCF convergence          0.1000000E-05 Eh   :
          :  -> wf. convergence          0.1000000E-03 e    :
          :  Broyden damping             0.4000000          :
          ...................................................

 iter      E             dE          RMSdq      gap      omega  full diag
   1    -25.3108115 -0.253108E+02  0.518E+00    2.14       0.0  T
   2    -25.3213936 -0.105821E-01  0.309E+00    1.83       1.0  T
   3    -25.3040065  0.173871E-01  0.105E+00    2.36       1.0  T
   4    -25.3235854 -0.195789E-01  0.292E-01    1.93       1.0  T
   5    -25.3244873 -0.901818E-03  0.124E-01    2.00       1.0  T
   6    -25.3246753 -0.188043E-03  0.400E-02    1.98       1.0  T
   7    -25.3246820 -0.673682E-05  0.210E-02    2.00       1.2  T
   8    -25.3246838 -0.174363E-05  0.402E-03    1.99       6.0  T
   9    -25.3246840 -0.258256E-06  0.141E-03    1.99      17.3  T
  10    -25.3246840 -0.778464E-08  0.822E-04    1.99      29.5  T
  11    -25.3246841 -0.707370E-09  0.393E-04    1.99      61.8  T

   *** convergence criteria satisfied after 11 iterations ***

         #    Occupation            Energy/Eh            Energy/eV
      -------------------------------------------------------------
         1        2.0000           -0.6491439             -17.6641
       ...           ...                  ...                  ...
        18        2.0000           -0.4515606             -12.2876
        19        2.0000           -0.4296235             -11.6906
        20        2.0000           -0.4243738             -11.5478
        21        2.0000           -0.4180336             -11.3753
        22        2.0000           -0.4016139             -10.9285
        23        2.0000           -0.3783413             -10.2952
        24        1.0000           -0.3335090              -9.0752 (HOMO)
        25                         -0.2603078              -7.0833 (LUMO)
        26                         -0.2324612              -6.3256
        27                         -0.1930414              -5.2529
        28                         -0.1496490              -4.0722
        29                         -0.0632220              -1.7204
       ...                                ...                  ...
        47                          0.6654990              18.1092
      -------------------------------------------------------------
                  HL-Gap            0.0732012 Eh            1.9919 eV
             Fermi-level           -0.3264168 Eh           -8.8823 eV

 SCC (total)                   0 d,  0 h,  0 min,  2.751 sec
 SCC setup                      ...        0 min,  0.017 sec (  0.602%)
 Dispersion                     ...        0 min,  0.020 sec (  0.727%)
 classical contributions        ...        0 min,  0.000 sec (  0.003%)
 integral evaluation            ...        0 min,  0.029 sec (  1.049%)
 iterations                     ...        0 min,  2.300 sec ( 83.609%)
 molecular gradient             ...        0 min,  0.385 sec ( 13.996%)
 printout                       ...        0 min,  0.000 sec (  0.009%)

         :::::::::::::::::::::::::::::::::::::::::::::::::::::
         ::                     SUMMARY                     ::
         :::::::::::::::::::::::::::::::::::::::::::::::::::::
         :: total energy             -24.872080526094 Eh    ::
         :: total w/o Gsasa/hb       -24.861506475131 Eh    ::
         :: gradient norm              0.064709820051 Eh/a0 ::
         :: HOMO-LUMO gap              1.991906429205 eV    ::
         ::.................................................::
         :: SCC energy               -25.324684050225 Eh    ::
         :: -> isotropic ES            0.000827242775 Eh    ::
         :: -> anisotropic ES          0.002887412639 Eh    ::
         :: -> anisotropic XC          0.017836495687 Eh    ::
         :: -> dispersion             -0.015759530927 Eh    ::
         :: -> Gsolv                  -0.010829818229 Eh    ::
         ::    -> Gelec               -0.000255767265 Eh    ::
         ::    -> Gsasa               -0.014722748325 Eh    ::
         ::    -> Ghb                  0.000000000000 Eh    ::
         ::    -> Gshift               0.004148697361 Eh    ::
         :: repulsion energy           0.452578203066 Eh    ::
         :: add. restraining           0.000000000000 Eh    ::
         :: total charge              -0.000000000000 e     ::
         :::::::::::::::::::::::::::::::::::::::::::::::::::::

      ----------------------------------------------------------- 
     |                   =====================                   |
     |                        A N C O P T                        |
     |                   =====================                   |
     |               Approximate Normal Coordinate               |
     |                Rational Function Optimizer                |
      ----------------------------------------------------------- 

          ...................................................
          :                      SETUP                      :
          :.................................................:
          :   optimization level             tight          :
          :   max. optcycles                   200          :
          :   ANC micro-cycles                  20          :
          :   degrees of freedom                45          :
          :.................................................:
          :   RF solver                   davidson          :
          :   write xtbopt.log                true          :
          :   linear?                        false          :
          :   energy convergence         0.1000000E-05 Eh   :
          :   grad. convergence          0.8000000E-03 Eh/α :
          :   maximium RF displ.         1.0000000          :
          :   Hlow (freq-cutoff)         0.1000000E-01      :
          :   Hmax (freq-cutoff)         5.0000000          :
          :   S6 in model hess.         20.0000000          :
          ...................................................

generating ANC from model Hessian ...
Using Lindh-Hessian (1995)
 Shifting diagonal of input Hessian by    4.7609646794008901E-003
 Lowest  eigenvalues of input Hessian
    0.000000    0.000000    0.000000    0.000000    0.000000    0.000000
    0.010000    0.010584    0.019148    0.021869    0.023852    0.032714
    0.033518    0.048120    0.062081    0.064446    0.069395    0.080700
 Highest eigenvalues
    1.658726    1.768478    1.791841    1.882617    1.931475    2.015139


........................................................................
.............................. CYCLE    1 ..............................
........................................................................
   1    -25.3246841 -0.253247E+02  0.714E-05    1.99       0.0  T
   2    -25.3246841 -0.260307E-10  0.425E-05    1.99     570.8  T
   3    -25.3246841 -0.124274E-10  0.237E-05    1.99    1023.1  T
     SCC iter.                  ...        0 min,  0.745 sec
     gradient                   ...        0 min,  0.205 sec
 * total energy  :   -24.8720805 Eh     change       -0.1500471E-08 Eh
   gradient norm :     0.0647098 Eh/α   predicted     0.0000000E+00 (-100.00%)
   displ. norm   :     0.1454017 α      lambda       -0.6659146E-02
   maximum displ.:     0.0999556 α      in ANC's #25, #23, #21, ...

........................................................................
.............................. CYCLE    2 ..............................
........................................................................
   1    -25.3621603 -0.253622E+02  0.212E-01    1.85       0.0  T
   2    -25.3621680 -0.765523E-05  0.126E-01    1.84       1.0  T
   3    -25.3621329  0.351304E-04  0.537E-02    1.86       1.0  T
   4    -25.3621740 -0.411050E-04  0.715E-03    1.84       3.4  T
   5    -25.3621743 -0.319109E-06  0.485E-03    1.85       5.0  T
   6    -25.3621744 -0.115861E-06  0.184E-03    1.85      13.2  T
   7    -25.3621744 -0.190011E-07  0.735E-04    1.85      33.0  T
   8    -25.3621744 -0.244811E-08  0.188E-04    1.85     129.2  T
     SCC iter.                  ...        0 min,  0.993 sec
     gradient                   ...        0 min,  0.040 sec
 * total energy  :   -24.8764216 Eh     change       -0.4341053E-02 Eh
   gradient norm :     0.0273106 Eh/α   predicted    -0.3399967E-02 ( -21.68%)
   displ. norm   :     0.0578965 α      lambda       -0.1097103E-02
   maximum displ.:     0.0397389 α      in ANC's #25, #23, #35, ...

........................................................................
.............................. CYCLE    3 ..............................
........................................................................
   1    -25.3742581 -0.253743E+02  0.111E-01    1.75       0.0  T
   2    -25.3742601 -0.206480E-05  0.656E-02    1.74       1.0  T
   3    -25.3742558  0.438187E-05  0.210E-02    1.75       1.2  T
   4    -25.3742610 -0.524221E-05  0.353E-03    1.74       6.9  T
   5    -25.3742611 -0.596297E-07  0.247E-03    1.74       9.8  T
   6    -25.3742611 -0.368718E-07  0.880E-04    1.74      27.6  T
   7    -25.3742611 -0.256334E-08  0.346E-04    1.74      70.0  T
     SCC iter.                  ...        0 min,  0.836 sec
     gradient                   ...        0 min,  0.043 sec
 * total energy  :   -24.8770115 Eh     change       -0.5899285E-03 Eh
   gradient norm :     0.0071522 Eh/α   predicted    -0.5503914E-03 (  -6.70%)
   displ. norm   :     0.0135242 α      lambda       -0.5640139E-04
   maximum displ.:     0.0061929 α      in ANC's #14, #21, #10, ...

........................................................................
.............................. CYCLE    4 ..............................
........................................................................
   1    -25.3730367 -0.253730E+02  0.235E-02    1.73       0.0  T
   2    -25.3730368 -0.904114E-07  0.140E-02    1.72       1.7  T
   3    -25.3730367  0.170180E-06  0.370E-03    1.73       6.6  T
   4    -25.3730369 -0.202436E-06  0.613E-04    1.73      39.5  T
   5    -25.3730369 -0.274106E-08  0.352E-04    1.73      69.0  T
     SCC iter.                  ...        0 min,  0.687 sec
     gradient                   ...        0 min,  0.099 sec
 * total energy  :   -24.8770492 Eh     change       -0.3772719E-04 Eh
   gradient norm :     0.0028631 Eh/α   predicted    -0.2820683E-04 ( -25.23%)
   displ. norm   :     0.0081930 α      lambda       -0.1290181E-04
   maximum displ.:     0.0038559 α      in ANC's #10, #14, #21, ...

........................................................................
.............................. CYCLE    5 ..............................
........................................................................
   1    -25.3719763 -0.253720E+02  0.114E-02    1.72       0.0  T
   2    -25.3719763 -0.184494E-07  0.682E-03    1.72       3.6  T
   3    -25.3719763  0.462952E-07  0.194E-03    1.72      12.5  T
   4    -25.3719764 -0.544720E-07  0.264E-04    1.72      91.9  T
   5    -25.3719764 -0.607503E-09  0.162E-04    1.72     149.3  T
     SCC iter.                  ...        0 min,  0.574 sec
     gradient                   ...        0 min,  0.082 sec
 * total energy  :   -24.8770562 Eh     change       -0.6937519E-05 Eh
   gradient norm :     0.0006639 Eh/α   predicted    -0.6451323E-05 (  -7.01%)
   displ. norm   :     0.0019719 α      lambda       -0.4638523E-06
   maximum displ.:     0.0009130 α      in ANC's #17, #14, #10, ...

........................................................................
.............................. CYCLE    6 ..............................
........................................................................
   1    -25.3719255 -0.253719E+02  0.302E-03    1.72       0.0  T
   2    -25.3719255 -0.877616E-09  0.182E-03    1.72      13.4  T
   3    -25.3719255  0.537523E-08  0.549E-04    1.72      44.2  T
   4    -25.3719255 -0.608307E-08  0.764E-05    1.72     317.3  T
     SCC iter.                  ...        0 min,  0.367 sec
     gradient                   ...        0 min,  0.016 sec
 * total energy  :   -24.8770565 Eh     change       -0.3761849E-06 Eh
   gradient norm :     0.0001929 Eh/α   predicted    -0.2326935E-06 ( -38.14%)
   displ. norm   :     0.0008240 α      lambda       -0.5873539E-07
   maximum displ.:     0.0004391 α      in ANC's #21, #13, #23, ...

   *** GEOMETRY OPTIMIZATION CONVERGED AFTER 6 ITERATIONS ***

------------------------------------------------------------------------
 total energy gain   :        -0.0049760 Eh       -3.1225 kcal/mol
 total RMSD          :         0.0471660 a0        0.0250 Å
 total power (kW/mol):        -2.1774247 (step)   -2.4505 (real)
------------------------------------------------------------------------

 ANCopt (total)                0 d,  0 h,  0 min,  5.331 sec
 optimizer setup                ...        0 min,  0.000 sec (  0.007%)
 model hessian                  ...        0 min,  0.018 sec (  0.340%)
 ANC generation                 ...        0 min,  0.001 sec (  0.026%)
 coordinate transformation      ...        0 min,  0.000 sec (  0.002%)
 single point calculation       ...        0 min,  5.216 sec ( 97.837%)
 optimization log               ...        0 min,  0.001 sec (  0.028%)
 hessian update                 ...        0 min,  0.091 sec (  1.714%)
 rational function              ...        0 min,  0.002 sec (  0.033%)

================
 final structure:
================
17
 xtb: 6.5.1 (b24c23e)
C            2.12834022975599        3.61203123721210        0.00027713351777
C            0.00202422686110        0.01084334671174        0.00007798803188
C            1.36950838300035        0.01208394579387       -0.00008876132235
C            2.09759031481734        1.21851097462525       -0.00002111089488
C            1.36678502291188        2.45140561884285        0.00024272133547
C           -0.04257323611904        2.41413143339996        0.00040686882517
C           -0.70954589306806        1.22076745100089        0.00032049960974
H            4.05181006621903        0.32921715349385       -0.00039507937180
H           -0.54082842303260       -0.92353085282361        0.00001403272383
H            1.91895618669871       -0.91962013430368       -0.00029024592274
C            3.50810194750906        1.26430115655925       -0.00019659767424
H           -0.58178884998346        3.35049903786890        0.00059969224591
H           -1.78992163793734        1.20036593559604        0.00045818374144
C            3.47258871348400        3.67338358372270        0.00007867153854
C            4.18575240986404        2.44966192179577       -0.00014002627828
H            4.01219403518569        4.60878693876811        0.00022884393901
H            5.26635950383329        2.47386525173601       -0.00026181404449

 Bond Distances (Angstroems)
 ---------------------------
C1-C5=1.3882         C1-C14=1.3456        C2-C3=1.3675         C2-C7=1.4037         C2-H9=1.0806         C3-C2=1.3675         
C3-C4=1.4091         C3-H10=1.0816        C4-C3=1.4091         C4-C5=1.4332         C4-C11=1.4113        C5-C1=1.3882         
C5-C4=1.4332         C5-C6=1.4099         C6-C5=1.4099         C6-C7=1.3671         C6-H12=1.0805        C7-C2=1.4037         
C7-C6=1.3671         C7-H13=1.0806        H8-C11=1.0817        H9-C2=1.0806         H10-C3=1.0816        C11-C4=1.4113        
C11-H8=1.0817        C11-C15=1.3654       H12-C6=1.0805        H13-C7=1.0806        C14-C1=1.3456        C14-C15=1.4164       
C14-H16=1.0799       C15-C11=1.3654       C15-C14=1.4164       C15-H17=1.0809       H16-C14=1.0799       H17-C15=1.0809       
 C  H  Rav=1.0808 sigma=0.0006  Rmin=1.0799  Rmax=1.0817     7
 C  C  Rav=1.3925 sigma=0.0261  Rmin=1.3456  Rmax=1.4332    11

 selected bond angles (degree)
 --------------------
C14-C1-C5=125.88               C7-C2-C3=120.41                H9-C2-C3=120.21                H9-C2-C7=119.38                
C4-C3-C2=121.16                H10-C3-C2=120.48               H10-C3-C4=118.36               C5-C4-C3=118.23                
C11-C4-C3=122.97               C11-C4-C5=118.80               C4-C5-C1=116.07                C6-C5-C1=124.79                
C6-C5-C4=119.14                C7-C6-C5=120.72                H12-C6-C5=118.42               H12-C6-C7=120.86               
C6-C7-C2=120.34                H13-C7-C2=119.38               H13-C7-C6=120.28               

 selected dihedral angles (degree)
 ---------------------------------
C4-C3-C2-C7=  0.00            C4-C3-C2-H9=180.00            H10-C3-C2-C7=180.00           H10-C3-C2-H9=  0.00           
C5-C4-C3-C2=  0.00            C5-C4-C3-H10=180.00           C11-C4-C3-C2=180.00           C11-C4-C3-H10=  0.00          
C4-C5-C1-C14=  0.00           C6-C5-C1-C14=180.00           C1-C5-C4-C3=180.00            C1-C5-C4-C11=  0.00           
C6-C5-C4-C3=  0.00            C6-C5-C4-C11=180.00           C7-C6-C5-C1=180.00            C7-C6-C5-C4=  0.00            
H12-C6-C5-C1=  0.00           H12-C6-C5-C4=180.00           C6-C7-C2-C3=  0.00            C6-C7-C2-H9=180.00            
H13-C7-C2-C3=180.00           H13-C7-C2-H9=  0.00           C2-C7-C6-C5=  0.00            C2-C7-C6-H12=180.00           
H13-C7-C6-C5=180.00           H13-C7-C6-H12=  0.00          
           -------------------------------------------------
          |                Final Singlepoint                |
           -------------------------------------------------

          ...................................................
          :                      SETUP                      :
          :.................................................:
          :  # basis functions                  47          :
          :  # atomic orbitals                  47          :
          :  # shells                           27          :
          :  # electrons                        47          :
          :  max. iterations                   250          :
          :  Hamiltonian                  GFN2-xTB          :
          :  restarted?                      false          :
          :  GBSA solvation                   true          :
          :  PC potential                    false          :
          :  electronic temp.          300.0000000     K    :
          :  accuracy                    1.0000000          :
          :  -> integral cutoff          0.2500000E+02      :
          :  -> integral neglect         0.1000000E-07      :
          :  -> SCF convergence          0.1000000E-05 Eh   :
          :  -> wf. convergence          0.1000000E-03 e    :
          :  Broyden damping             0.4000000          :
          ...................................................

 iter      E             dE          RMSdq      gap      omega  full diag
   1    -25.3719255 -0.253719E+02  0.369E-05    1.72       0.0  T
   2    -25.3719255 -0.234479E-11  0.227E-05    1.72    1070.0  T
   3    -25.3719255 -0.102318E-11  0.145E-05    1.72    1668.5  T

   *** convergence criteria satisfied after 3 iterations ***

         #    Occupation            Energy/Eh            Energy/eV
      -------------------------------------------------------------
         1        2.0000           -0.6507046             -17.7066
       ...           ...                  ...                  ...
        18        2.0000           -0.4533279             -12.3357
        19        2.0000           -0.4286534             -11.6643
        20        2.0000           -0.4267293             -11.6119
        21        2.0000           -0.4203366             -11.4379
        22        2.0000           -0.4014012             -10.9227
        23        2.0000           -0.3789516             -10.3118
        24        1.0000           -0.3212051              -8.7404 (HOMO)
        25                         -0.2580503              -7.0219 (LUMO)
        26                         -0.2325800              -6.3288
        27                         -0.1842176              -5.0128
        28                         -0.1446934              -3.9373
        29                         -0.0546925              -1.4883
       ...                                ...                  ...
        47                          0.7035556              19.1447
      -------------------------------------------------------------
                  HL-Gap            0.0631549 Eh            1.7185 eV
             Fermi-level           -0.3198530 Eh           -8.7036 eV

 SCC (total)                   0 d,  0 h,  0 min,  0.275 sec
 SCC setup                      ...        0 min,  0.000 sec (  0.088%)
 Dispersion                     ...        0 min,  0.000 sec (  0.026%)
 classical contributions        ...        0 min,  0.000 sec (  0.006%)
 integral evaluation            ...        0 min,  0.001 sec (  0.283%)
 iterations                     ...        0 min,  0.249 sec ( 90.714%)
 molecular gradient             ...        0 min,  0.024 sec (  8.816%)
 printout                       ...        0 min,  0.000 sec (  0.051%)

         :::::::::::::::::::::::::::::::::::::::::::::::::::::
         ::                     SUMMARY                     ::
         :::::::::::::::::::::::::::::::::::::::::::::::::::::
         :: total energy             -24.877056549683 Eh    ::
         :: total w/o Gsasa/hb       -24.866645437304 Eh    ::
         :: gradient norm              0.000192874085 Eh/a0 ::
         :: HOMO-LUMO gap              1.718531179182 eV    ::
         ::.................................................::
         :: SCC energy               -25.371925497068 Eh    ::
         :: -> isotropic ES            0.001251621262 Eh    ::
         :: -> anisotropic ES          0.002430894774 Eh    ::
         :: -> anisotropic XC          0.016787443819 Eh    ::
         :: -> dispersion             -0.015839381490 Eh    ::
         :: -> Gsolv                  -0.010660930449 Eh    ::
         ::    -> Gelec               -0.000249818069 Eh    ::
         ::    -> Gsasa               -0.014559809741 Eh    ::
         ::    -> Ghb                  0.000000000000 Eh    ::
         ::    -> Gshift               0.004148697361 Eh    ::
         :: repulsion energy           0.494844252163 Eh    ::
         :: add. restraining           0.000000000000 Eh    ::
         :: total charge              -0.000000000000 e     ::
         :::::::::::::::::::::::::::::::::::::::::::::::::::::

           -------------------------------------------------
          |                Property Printout                |
           -------------------------------------------------

    * Orbital Energies and Occupations

         #    Occupation            Energy/Eh            Energy/eV
      -------------------------------------------------------------
         1        2.0000           -0.6507046             -17.7066
       ...           ...                  ...                  ...
        12        2.0000           -0.4925420             -13.4027
        13        2.0000           -0.4896400             -13.3238
        14        2.0000           -0.4858924             -13.2218
        15        2.0000           -0.4744146             -12.9095
        16        2.0000           -0.4637867             -12.6203
        17        2.0000           -0.4572008             -12.4411
        18        2.0000           -0.4533279             -12.3357
        19        2.0000           -0.4286534             -11.6643
        20        2.0000           -0.4267293             -11.6119
        21        2.0000           -0.4203366             -11.4379
        22        2.0000           -0.4014012             -10.9227
        23        2.0000           -0.3789516             -10.3118
        24        1.0000           -0.3212051              -8.7404 (HOMO)
        25                         -0.2580503              -7.0219 (LUMO)
        26                         -0.2325800              -6.3288
        27                         -0.1842176              -5.0128
        28                         -0.1446934              -3.9373
        29                         -0.0546925              -1.4883
        30                          0.1107290               3.0131
        31                          0.1212009               3.2980
        32                          0.1394060               3.7934
        33                          0.1510600               4.1106
        34                          0.1703537               4.6356
        35                          0.1831780               4.9845
       ...                                ...                  ...
        47                          0.7035556              19.1447
      -------------------------------------------------------------
                  HL-Gap            0.0631549 Eh            1.7185 eV
             Fermi-level           -0.3198530 Eh           -8.7036 eV

     #   Z          covCN         q      C6AA      α(0)
     1   6 C        2.011    -0.077    33.130     9.296
     2   6 C        2.915    -0.030    28.741     8.791
     3   6 C        2.917    -0.035    28.870     8.811
     4   6 C        2.991     0.015    27.660     8.627
     5   6 C        2.982     0.026    27.411     8.588
     6   6 C        2.915    -0.031    28.778     8.797
     7   6 C        2.916    -0.031    28.764     8.795
     8   1 H        0.925     0.038     2.478     2.462
     9   1 H        0.926     0.033     2.548     2.496
    10   1 H        0.925     0.036     2.505     2.475
    11   6 C        2.915    -0.043    29.071     8.841
    12   1 H        0.926     0.039     2.458     2.452
    13   1 H        0.926     0.033     2.549     2.497
    14   6 C        2.911    -0.025    28.632     8.774
    15   6 C        2.925    -0.028    28.699     8.785
    16   1 H        0.926     0.042     2.425     2.435
    17   1 H        0.926     0.038     2.472     2.459

 Mol. C6AA /au·bohr⁶  :       4205.189119
 Mol. C8AA /au·bohr⁸  :     107426.637753
 Mol. α(0) /au        :        105.381184


Wiberg/Mayer (AO) data.
largest (>0.10) Wiberg bond orders for each atom

 ---------------------------------------------------------------------------
     #   Z sym  total        # sym  WBO       # sym  WBO       # sym  WBO
 ---------------------------------------------------------------------------
     1   6 C    3.112 --    14 C    1.596     5 C    1.308    11 C    0.112
     2   6 C    3.992 --     3 C    1.552     7 C    1.324     9 H    0.971
     3   6 C    3.983 --     2 C    1.552     4 C    1.282    10 H    0.964
                             6 C    0.117
     4   6 C    3.931 --     3 C    1.282    11 C    1.281     5 C    1.189
     5   6 C    3.953 --     1 C    1.308     6 C    1.277     4 C    1.189
     6   6 C    3.983 --     7 C    1.553     5 C    1.277    12 H    0.968
                             3 C    0.117
     7   6 C    3.992 --     6 C    1.553     2 C    1.324    13 H    0.971
     8   1 H    0.989 --    11 C    0.961
     9   1 H    0.998 --     2 C    0.971
    10   1 H    0.992 --     3 C    0.964
    11   6 C    3.990 --    15 C    1.568     4 C    1.281     8 H    0.961
                             1 C    0.112
    12   1 H    0.995 --     6 C    0.968
    13   1 H    0.998 --     7 C    0.971
    14   6 C    3.958 --     1 C    1.596    15 C    1.254    16 H    0.957
    15   6 C    3.929 --    11 C    1.568    14 C    1.254    17 H    0.963
    16   1 H    0.983 --    14 C    0.957
    17   1 H    0.988 --    15 C    0.963
 ---------------------------------------------------------------------------

Topologies differ in total number of bonds
Writing topology from bond orders to xtbtopo.mol

molecular dipole:
                 x           y           z       tot (Debye)
 q only:        0.028      -0.222      -0.000
   full:        0.133      -0.368      -0.000       0.993
molecular quadrupole (traceless):
                xx          xy          yy          xz          yz          zz
 q only:        3.405      -0.583      -1.591      -0.001       0.000      -1.814
  q+dip:        8.769       0.183      -1.209      -0.002       0.001      -7.560
   full:        6.340      -0.315      -3.040      -0.001       0.000      -3.300

           -------------------------------------------------
          |                Geometry Summary                 |
           -------------------------------------------------

      molecular mass/u    :      127.1629443
   center of mass at/Å    :        1.7392190       1.8112365       0.0000932
  moments of inertia/u·Å² :        0.1518879E+03   0.4060881E+03   0.5579760E+03
rotational constants/cm⁻¹ :        0.1109873E+00   0.4151225E-01   0.3021211E-01

 * 17 selected distances

     #   Z          #   Z                                           value/Å
     2   6 C        3   6 C                                       1.3674849
     3   6 C        4   6 C                                       1.4091025
     4   6 C        5   6 C                                       1.4332153 (max)
     5   6 C        6   6 C                                       1.4098512
     2   6 C        7   6 C                                       1.4036555
     6   6 C        7   6 C                                       1.3671029
     2   6 C        9   1 H                                       1.0806222
     3   6 C       10   1 H                                       1.0816495
     4   6 C       11   6 C                                       1.4112548
     8   1 H       11   6 C                                       1.0816658
     6   6 C       12   1 H                                       1.0805267
     7   6 C       13   1 H                                       1.0805685
     1   6 C       14   6 C                                       1.3456480
    11   6 C       15   6 C                                       1.3653903
    14   6 C       15   6 C                                       1.4163677
    14   6 C       16   1 H                                       1.0798859 (min)
    15   6 C       17   1 H                                       1.0808782

 * 2 distinct bonds (by element types)

   Z      Z             #   av. dist./Å        max./Å        min./Å
   1 H    6 C           7     1.0808281     1.0816658     1.0798859
   6 C    6 C          10     1.3929073     1.4332153     1.3456480


optimized geometry written to: xtbopt.xyz


           -------------------------------------------------
          | TOTAL ENERGY              -24.877056549683 Eh   |
          | GRADIENT NORM               0.000192874085 Eh/α |
          | HOMO-LUMO GAP               1.718531179182 eV   |
           -------------------------------------------------

------------------------------------------------------------------------
 * finished run on 2022/11/14 at 22:12:30.653     
------------------------------------------------------------------------
 total:
 * wall-time:     0 d,  0 h,  0 min,  8.513 sec
 *  cpu-time:     0 d,  0 h,  0 min, 39.141 sec
 * ratio c/w:     4.598 speedup
 SCF:
 * wall-time:     0 d,  0 h,  0 min,  2.751 sec
 *  cpu-time:     0 d,  0 h,  0 min,  9.188 sec
 * ratio c/w:     3.339 speedup
 ANC optimizer:
 * wall-time:     0 d,  0 h,  0 min,  5.622 sec
 *  cpu-time:     0 d,  0 h,  0 min, 29.297 sec
 * ratio c/w:     5.211 speedup

