      -----------------------------------------------------------      
     |                   =====================                   |     
     |                           x T B                           |     
     |                   =====================                   |     
     |                         S. Grimme                         |     
     |          Mulliken Center for Theoretical Chemistry        |     
     |                    University of Bonn                     |     
      -----------------------------------------------------------      

   * xtb version 6.5.1 (b24c23e) compiled by 'conda@728c89f4b128' on 2022-07-12

   xtb is free software: you can redistribute it and/or modify it under
   the terms of the GNU Lesser General Public License as published by
   the Free Software Foundation, either version 3 of the License, or
   (at your option) any later version.
   
   xtb is distributed in the hope that it will be useful,
   but WITHOUT ANY WARRANTY; without even the implied warranty of
   MERCHANTABILITY or FITNESS FOR A PARTICULAR PURPOSE.  See the
   GNU Lesser General Public License for more details.
   
   Cite this work as:
   * C. Bannwarth, E. Caldeweyher, S. Ehlert, A. Hansen, P. Pracht,
     J. Seibert, S. Spicher, S. Grimme, WIREs Comput. Mol. Sci., 2020, 11,
     e01493. DOI: 10.1002/wcms.1493
   
   for GFN2-xTB:
   * C. Bannwarth, S. Ehlert and S. Grimme., J. Chem. Theory Comput., 2019,
     15, 1652-1671. DOI: 10.1021/acs.jctc.8b01176
   for GFN1-xTB:
   * S. Grimme, C. Bannwarth, P. Shushkov, J. Chem. Theory Comput., 2017,
     13, 1989-2009. DOI: 10.1021/acs.jctc.7b00118
   for GFN0-xTB:
   * P. Pracht, E. Caldeweyher, S. Ehlert, S. Grimme, ChemRxiv, 2019, preprint.
     DOI: 10.26434/chemrxiv.8326202.v1
   for GFN-FF:
   * S. Spicher and S. Grimme, Angew. Chem. Int. Ed., 2020, 59, 15665-15673.
     DOI: 10.1002/anie.202004239
   
   for ALPB and GBSA implicit solvation:
   * S. Ehlert, M. Stahn, S. Spicher, S. Grimme, J. Chem. Theory Comput.,
     2021, 17, 4250-4261. DOI: 10.1021/acs.jctc.1c00471
   
   for DFT-D4:
   * E. Caldeweyher, C. Bannwarth and S. Grimme, J. Chem. Phys., 2017,
     147, 034112. DOI: 10.1063/1.4993215
   * E. Caldeweyher, S. Ehlert, A. Hansen, H. Neugebauer, S. Spicher,
     C. Bannwarth and S. Grimme, J. Chem. Phys., 2019, 150, 154122.
     DOI: 10.1063/1.5090222
   * E. Caldeweyher, J.-M. Mewes, S. Ehlert and S. Grimme, Phys. Chem. Chem. Phys.
     2020, 22, 8499-8512. DOI: 10.1039/D0CP00502A
   
   for sTDA-xTB:
   * S. Grimme and C. Bannwarth, J. Chem. Phys., 2016, 145, 054103.
     DOI: 10.1063/1.4959605
   
   in the mass-spec context:
   * V. Asgeirsson, C. Bauer and S. Grimme, Chem. Sci., 2017, 8, 4879.
     DOI: 10.1039/c7sc00601b
   * J. Koopman and S. Grimme, ACS Omega 2019, 4, 12, 15120-15133.
     DOI: 10.1021/acsomega.9b02011
   
   for metadynamics refer to:
   * S. Grimme, J. Chem. Theory Comput., 2019, 155, 2847-2862
     DOI: 10.1021/acs.jctc.9b00143
   
   for SPH calculations refer to:
   * S. Spicher and S. Grimme, J. Chem. Theory Comput., 2021, 17, 1701-1714
     DOI: 10.1021/acs.jctc.0c01306
   
   with help from (in alphabetical order)
   P. Atkinson, C. Bannwarth, F. Bohle, G. Brandenburg, E. Caldeweyher
   M. Checinski, S. Dohm, S. Ehlert, S. Ehrlich, I. Gerasimov, C. Hölzer
   A. Katbashev, J. Koopman, C. Lavigne, S. Lehtola, F. März, M. Müller,
   F. Musil, H. Neugebauer, J. Pisarek, C. Plett, P. Pracht, F. Pultar,
   J. Seibert, P. Shushkov, S. Spicher, M. Stahn, M. Steiner, T. Strunk,
   J. Stückrath, T. Rose, and J. Unsleber
   
 * started run on 2022/11/14 at 22:11:51.781     

           -------------------------------------------------
          |                Calculation Setup                |
           -------------------------------------------------

          program call               : xtb C6H6-CH3_ortho_1.xyz --gfn2 --chrg 0 --uhf 1 --alpb ch2cl2 --opt 1
          coordinate file            : C6H6-CH3_ortho_1.xyz
          omp threads                :                     8

   ID    Z sym.   atoms
    1    6 C      1-6, 11
    2    1 H      7-10, 12-14

           -------------------------------------------------
          |                 G F N 2 - x T B                 |
           -------------------------------------------------

        Reference                      10.1021/acs.jctc.8b01176
      * Hamiltonian:
        H0-scaling (s, p, d)           1.850000    2.230000    2.230000
        zeta-weighting                 0.500000
      * Dispersion:
        s8                             2.700000
        a1                             0.520000
        a2                             5.000000
        s9                             5.000000
      * Repulsion:
        kExp                           1.500000    1.000000
        rExp                           1.000000
      * Coulomb:
        alpha                          2.000000
        third order                    shell-resolved
        anisotropic                    true
        a3                             3.000000
        a5                             4.000000
        cn-shift                       1.200000
        cn-exp                         4.000000
        max-rad                        5.000000

      * Solvation model:               ALPB
        Solvent                        ch2cl2
        Parameter file                 internal GFN2-xTB/ALPB
        Dielectric constant                8.9300E+00
        Reference state                gsolv [1 M gas/solution]
        Free energy shift                  4.1487E-03 Eh       2.6033E+00 kcal/mol
        Temperature                        2.9815E+02 K
        Density                            1.3300E+00 kg/L
        Solvent mass                       8.4930E+01 g/mol
        Interaction kernel             P16
        Born radius scaling (c1)           1.5691E+00
        Born radii integrator          GBOBC
        Born offset                        0.0000E+00 a0       0.0000E+00 AA
        H-bond correction              false
        Ion screening                  false
        Surface tension                    1.0000E-05 Eh       1.5569E+01 dyn/cm
        Grid points                               230 per atom

          ...................................................
          :                      SETUP                      :
          :.................................................:
          :  # basis functions                  35          :
          :  # atomic orbitals                  35          :
          :  # shells                           21          :
          :  # electrons                        35          :
          :  max. iterations                   250          :
          :  Hamiltonian                  GFN2-xTB          :
          :  restarted?                      false          :
          :  GBSA solvation                   true          :
          :  PC potential                    false          :
          :  electronic temp.          300.0000000     K    :
          :  accuracy                    1.0000000          :
          :  -> integral cutoff          0.2500000E+02      :
          :  -> integral neglect         0.1000000E-07      :
          :  -> SCF convergence          0.1000000E-05 Eh   :
          :  -> wf. convergence          0.1000000E-03 e    :
          :  Broyden damping             0.4000000          :
          ...................................................

 iter      E             dE          RMSdq      gap      omega  full diag
   1    -18.7611783 -0.187612E+02  0.468E+00    3.03       0.0  T
   2    -18.7713426 -0.101644E-01  0.278E+00    2.76       1.0  T
   3    -18.7633118  0.803078E-02  0.841E-01    3.26       1.0  T
   4    -18.7725544 -0.924252E-02  0.285E-01    2.80       1.0  T
   5    -18.7734712 -0.916873E-03  0.652E-02    2.92       1.0  T
   6    -18.7734885 -0.172406E-04  0.397E-02    2.92       1.0  T
   7    -18.7734923 -0.385941E-05  0.147E-02    2.92       1.8  T
   8    -18.7734927 -0.353602E-06  0.375E-03    2.92       7.1  T
   9    -18.7734928 -0.102658E-06  0.149E-03    2.92      17.9  T
  10    -18.7734928 -0.288051E-08  0.280E-04    2.92      95.6  T
  11    -18.7734928 -0.523769E-09  0.114E-04    2.92     235.3  T

   *** convergence criteria satisfied after 11 iterations ***

         #    Occupation            Energy/Eh            Energy/eV
      -------------------------------------------------------------
         1        2.0000           -0.6404412             -17.4273
       ...           ...                  ...                  ...
        12        2.0000           -0.4620855             -12.5740
        13        2.0000           -0.4611677             -12.5490
        14        2.0000           -0.4458296             -12.1316
        15        2.0000           -0.4209997             -11.4560
        16        2.0000           -0.3994420             -10.8694
        17        2.0000           -0.3924565             -10.6793
        18        1.0000           -0.3312252              -9.0131 (HOMO)
        19                         -0.2240333              -6.0963 (LUMO)
        20                         -0.2194134              -5.9705
        21                         -0.0956392              -2.6025
        22                          0.0717406               1.9522
        23                          0.1140624               3.1038
       ...                                ...                  ...
        35                          0.6071948              16.5226
      -------------------------------------------------------------
                  HL-Gap            0.1071919 Eh            2.9168 eV
             Fermi-level           -0.3197350 Eh           -8.7004 eV

 SCC (total)                   0 d,  0 h,  0 min,  1.988 sec
 SCC setup                      ...        0 min,  0.034 sec (  1.714%)
 Dispersion                     ...        0 min,  0.044 sec (  2.229%)
 classical contributions        ...        0 min,  0.004 sec (  0.195%)
 integral evaluation            ...        0 min,  0.033 sec (  1.641%)
 iterations                     ...        0 min,  1.553 sec ( 78.105%)
 molecular gradient             ...        0 min,  0.320 sec ( 16.102%)
 printout                       ...        0 min,  0.000 sec (  0.011%)

         :::::::::::::::::::::::::::::::::::::::::::::::::::::
         ::                     SUMMARY                     ::
         :::::::::::::::::::::::::::::::::::::::::::::::::::::
         :: total energy             -18.444316149257 Eh    ::
         :: total w/o Gsasa/hb       -18.436284172860 Eh    ::
         :: gradient norm              0.070907401251 Eh/a0 ::
         :: HOMO-LUMO gap              2.916839056205 eV    ::
         ::.................................................::
         :: SCC energy               -18.773492801190 Eh    ::
         :: -> isotropic ES            0.001823917489 Eh    ::
         :: -> anisotropic ES          0.003029330028 Eh    ::
         :: -> anisotropic XC          0.013445541541 Eh    ::
         :: -> dispersion             -0.009744607687 Eh    ::
         :: -> Gsolv                  -0.008331211154 Eh    ::
         ::    -> Gelec               -0.000299234758 Eh    ::
         ::    -> Gsasa               -0.012180673757 Eh    ::
         ::    -> Ghb                  0.000000000000 Eh    ::
         ::    -> Gshift               0.004148697361 Eh    ::
         :: repulsion energy           0.329164208267 Eh    ::
         :: add. restraining           0.000000000000 Eh    ::
         :: total charge              -0.000000000000 e     ::
         :::::::::::::::::::::::::::::::::::::::::::::::::::::

      ----------------------------------------------------------- 
     |                   =====================                   |
     |                        A N C O P T                        |
     |                   =====================                   |
     |               Approximate Normal Coordinate               |
     |                Rational Function Optimizer                |
      ----------------------------------------------------------- 

          ...................................................
          :                      SETUP                      :
          :.................................................:
          :   optimization level             tight          :
          :   max. optcycles                   200          :
          :   ANC micro-cycles                  20          :
          :   degrees of freedom                36          :
          :.................................................:
          :   RF solver                   davidson          :
          :   write xtbopt.log                true          :
          :   linear?                        false          :
          :   energy convergence         0.1000000E-05 Eh   :
          :   grad. convergence          0.8000000E-03 Eh/α :
          :   maximium RF displ.         1.0000000          :
          :   Hlow (freq-cutoff)         0.1000000E-01      :
          :   Hmax (freq-cutoff)         5.0000000          :
          :   S6 in model hess.         20.0000000          :
          ...................................................

generating ANC from model Hessian ...
Using Lindh-Hessian (1995)
 Shifting diagonal of input Hessian by    4.6664342157972929E-003
 Lowest  eigenvalues of input Hessian
    0.000000    0.000000    0.000000    0.000000    0.000000    0.000000
    0.010000    0.012752    0.020219    0.020969    0.022447    0.041480
    0.048081    0.053305    0.071468    0.075636    0.092538    0.093261
 Highest eigenvalues
    1.276224    1.446824    1.455577    1.805023    1.867555    1.885582


........................................................................
.............................. CYCLE    1 ..............................
........................................................................
   1    -18.7734928 -0.187735E+02  0.482E-05    2.92       0.0  T
   2    -18.7734928 -0.323297E-11  0.336E-05    2.92     796.3  T
   3    -18.7734928 -0.891731E-12  0.202E-05    2.92    1320.1  T
     SCC iter.                  ...        0 min,  0.507 sec
     gradient                   ...        0 min,  0.316 sec
 * total energy  :   -18.4443161 Eh     change       -0.1057927E-09 Eh
   gradient norm :     0.0708986 Eh/α   predicted     0.0000000E+00 (-100.00%)
   displ. norm   :     0.1454045 α      lambda       -0.7357211E-02
   maximum displ.:     0.0858674 α      in ANC's #23, #22, #19, ...

........................................................................
.............................. CYCLE    2 ..............................
........................................................................
   1    -18.7965108 -0.187965E+02  0.258E-01    2.76       0.0  T
   2    -18.7965414 -0.305409E-04  0.153E-01    2.74       1.0  T
   3    -18.7965115  0.298925E-04  0.743E-02    2.77       1.0  T
   4    -18.7965528 -0.412897E-04  0.853E-03    2.75       3.1  T
   5    -18.7965531 -0.364422E-06  0.502E-03    2.75       5.3  T
   6    -18.7965532 -0.440848E-07  0.263E-03    2.75      10.2  T
   7    -18.7965532 -0.194858E-07  0.344E-04    2.75      77.7  T
   8    -18.7965532 -0.834685E-09  0.172E-04    2.75     155.7  T
     SCC iter.                  ...        0 min,  0.965 sec
     gradient                   ...        0 min,  0.106 sec
 * total energy  :   -18.4490066 Eh     change       -0.4690493E-02 Eh
   gradient norm :     0.0322828 Eh/α   predicted    -0.3756380E-02 ( -19.92%)
   displ. norm   :     0.0887995 α      lambda       -0.1634632E-02
   maximum displ.:     0.0491099 α      in ANC's #4, #23, #9, ...

........................................................................
.............................. CYCLE    3 ..............................
........................................................................
   1    -18.8050838 -0.188051E+02  0.178E-01    2.60       0.0  T
   2    -18.8050953 -0.115404E-04  0.105E-01    2.59       1.0  T
   3    -18.8050805  0.148661E-04  0.490E-02    2.61       1.0  T
   4    -18.8051003 -0.198414E-04  0.467E-03    2.60       5.7  T
   5    -18.8051004 -0.100931E-06  0.259E-03    2.60      10.3  T
   6    -18.8051004 -0.800070E-08  0.137E-03    2.60      19.4  T
   7    -18.8051004 -0.518553E-08  0.179E-04    2.60     149.4  T
   8    -18.8051004 -0.461320E-10  0.826E-05    2.60     323.7  T
     SCC iter.                  ...        0 min,  0.851 sec
     gradient                   ...        0 min,  0.135 sec
 * total energy  :   -18.4498140 Eh     change       -0.8073993E-03 Eh
   gradient norm :     0.0064176 Eh/α   predicted    -0.8237610E-03 (   2.03%)
   displ. norm   :     0.0223172 α      lambda       -0.7615885E-04
   maximum displ.:     0.0141596 α      in ANC's #7, #9, #23, ...

........................................................................
.............................. CYCLE    4 ..............................
........................................................................
   1    -18.8030238 -0.188030E+02  0.287E-02    2.57       0.0  T
   2    -18.8030240 -0.165010E-06  0.171E-02    2.57       1.6  T
   3    -18.8030237  0.265288E-06  0.533E-03    2.57       5.0  T
   4    -18.8030240 -0.331548E-06  0.874E-04    2.57      30.6  T
   5    -18.8030240 -0.319383E-08  0.410E-04    2.57      65.1  T
     SCC iter.                  ...        0 min,  0.620 sec
     gradient                   ...        0 min,  0.073 sec
 * total energy  :   -18.4498618 Eh     change       -0.4776034E-04 Eh
   gradient norm :     0.0021409 Eh/α   predicted    -0.3809942E-04 ( -20.23%)
   displ. norm   :     0.0097765 α      lambda       -0.9111709E-05
   maximum displ.:     0.0067495 α      in ANC's #4, #7, #23, ...

........................................................................
.............................. CYCLE    5 ..............................
........................................................................
   1    -18.8023303 -0.188023E+02  0.106E-02    2.57       0.0  T
   2    -18.8023304 -0.215591E-07  0.635E-03    2.57       4.2  T
   3    -18.8023303  0.456887E-07  0.227E-03    2.57      11.7  T
   4    -18.8023304 -0.574332E-07  0.314E-04    2.57      85.0  T
   5    -18.8023304 -0.252580E-09  0.163E-04    2.57     163.9  T
     SCC iter.                  ...        0 min,  0.490 sec
     gradient                   ...        0 min,  0.026 sec
 * total energy  :   -18.4498668 Eh     change       -0.5002650E-05 Eh
   gradient norm :     0.0005508 Eh/α   predicted    -0.4557654E-05 (  -8.90%)
   displ. norm   :     0.0049738 α      lambda       -0.4778631E-06
   maximum displ.:     0.0047934 α      in ANC's #4, #15, #23, ...

........................................................................
.............................. CYCLE    6 ..............................
........................................................................
   1    -18.8023237 -0.188023E+02  0.327E-03    2.57       0.0  T
   2    -18.8023237 -0.231506E-08  0.198E-03    2.57      13.5  T
   3    -18.8023237  0.675861E-08  0.796E-04    2.57      33.6  T
   4    -18.8023237 -0.837503E-08  0.698E-05    2.57     382.8  T
     SCC iter.                  ...        0 min,  0.326 sec
     gradient                   ...        0 min,  0.035 sec
 * total energy  :   -18.4498672 Eh     change       -0.3930830E-06 Eh
   gradient norm :     0.0002305 Eh/α   predicted    -0.2382730E-06 ( -39.38%)
   displ. norm   :     0.0017024 α      lambda       -0.7998059E-07
   maximum displ.:     0.0015196 α      in ANC's #4, #7, #15, ...

   *** GEOMETRY OPTIMIZATION CONVERGED AFTER 6 ITERATIONS ***

------------------------------------------------------------------------
 total energy gain   :        -0.0055510 Eh       -3.4833 kcal/mol
 total RMSD          :         0.0502999 a0        0.0266 Å
 total power (kW/mol):        -2.4290461 (step)   -2.7168 (real)
------------------------------------------------------------------------

 ANCopt (total)                0 d,  0 h,  0 min,  5.365 sec
 optimizer setup                ...        0 min,  0.000 sec (  0.009%)
 model hessian                  ...        0 min,  0.018 sec (  0.341%)
 ANC generation                 ...        0 min,  0.053 sec (  0.994%)
 coordinate transformation      ...        0 min,  0.000 sec (  0.004%)
 single point calculation       ...        0 min,  5.227 sec ( 97.431%)
 optimization log               ...        0 min,  0.002 sec (  0.037%)
 hessian update                 ...        0 min,  0.061 sec (  1.139%)
 rational function              ...        0 min,  0.002 sec (  0.032%)

================
 final structure:
================
14
 xtb: 6.5.1 (b24c23e)
C            0.42167057137621        2.78497811882882       -0.00093102328771
C           -0.92862633814032        0.44569006089851        0.00001733499103
C            0.45411163662876        0.44166973619673        0.00054227044855
C            1.17429261855985        1.64216612452571        0.00009051977292
C           -0.93967302138123        2.84364398045075       -0.00151390944691
C           -1.63603571931721        1.63567724493823       -0.00100789383006
H           -1.46383128066245       -0.49399670633405        0.00038632486196
H            0.99909761883766       -0.49305016297083        0.00136181349896
H           -1.47235783157173        3.78359136076527       -0.00230194489473
H           -2.71692603507434        1.63790036955984       -0.00144728971927
C            2.67376285357987        1.64004455703662        0.00070943275885
H            3.05074115518995        1.12257163695900        0.88247733593926
H            3.05146794929569        1.12202314915968       -0.88042556379433
H            3.05720582267929        2.65709052998571        0.00054259270149

 Bond Distances (Angstroems)
 ---------------------------
C1-C4=1.3684         C1-C5=1.3626         C2-C3=1.3827         C2-C6=1.3844         C2-H7=1.0814         C3-C2=1.3827         
C3-C4=1.3999         C3-H8=1.0820         C4-C1=1.3684         C4-C3=1.3999         C4-C11=1.4995        C5-C1=1.3626         
C5-C6=1.3943         C5-H9=1.0804         C6-C2=1.3844         C6-C5=1.3943         C6-H10=1.0809        H7-C2=1.0814         
H8-C3=1.0820         H9-C5=1.0804         H10-C6=1.0809        C11-C4=1.4995        C11-H12=1.0897       C11-H13=1.0897       
C11-H14=1.0869       H12-C11=1.0897       H13-C11=1.0897       H14-C11=1.0869       
 C  H  Rav=1.0844 sigma=0.0039  Rmin=1.0804  Rmax=1.0897     7
 C  C  Rav=1.3988 sigma=0.0429  Rmin=1.3626  Rmax=1.4995     7

 selected bond angles (degree)
 --------------------
C5-C1-C4=125.84                C6-C2-C3=120.90                H7-C2-C3=119.50                H7-C2-C6=119.61                
C4-C3-C2=120.79                H8-C3-C2=120.41                H8-C3-C4=118.80                C3-C4-C1=115.67                
C11-C4-C1=123.45               C11-C4-C3=120.88               C6-C5-C1=117.49                H9-C5-C1=122.01                
H9-C5-C6=120.50                C5-C6-C2=119.31                H10-C6-C2=120.85               H10-C6-C5=119.84               

 selected dihedral angles (degree)
 ---------------------------------
C4-C3-C2-C6=  0.00            C4-C3-C2-H7=180.00            H8-C3-C2-C6=180.00            H8-C3-C2-H7=  0.00            
C3-C4-C1-C5=  0.00            C11-C4-C1-C5=180.00           C1-C4-C3-C2=  0.00            C1-C4-C3-H8=180.00            
C11-C4-C3-C2=180.00           C11-C4-C3-H8=  0.00           C6-C5-C1-C4=  0.00            H9-C5-C1-C4=180.00            
C5-C6-C2-C3=  0.00            C5-C6-C2-H7=180.00            H10-C6-C2-C3=180.00           H10-C6-C2-H7=  0.00           
C2-C6-C5-C1=  0.00            C2-C6-C5-H9=180.00            H10-C6-C5-C1=180.00           H10-C6-C5-H9=  0.00           
           -------------------------------------------------
          |                Final Singlepoint                |
           -------------------------------------------------

          ...................................................
          :                      SETUP                      :
          :.................................................:
          :  # basis functions                  35          :
          :  # atomic orbitals                  35          :
          :  # shells                           21          :
          :  # electrons                        35          :
          :  max. iterations                   250          :
          :  Hamiltonian                  GFN2-xTB          :
          :  restarted?                      false          :
          :  GBSA solvation                   true          :
          :  PC potential                    false          :
          :  electronic temp.          300.0000000     K    :
          :  accuracy                    1.0000000          :
          :  -> integral cutoff          0.2500000E+02      :
          :  -> integral neglect         0.1000000E-07      :
          :  -> SCF convergence          0.1000000E-05 Eh   :
          :  -> wf. convergence          0.1000000E-03 e    :
          :  Broyden damping             0.4000000          :
          ...................................................

 iter      E             dE          RMSdq      gap      omega  full diag
   1    -18.8023237 -0.188023E+02  0.379E-05    2.57       0.0  T
   2    -18.8023237 -0.194333E-11  0.227E-05    2.57    1177.5  T
   3    -18.8023237 -0.191847E-12  0.130E-05    2.57    2051.8  T

   *** convergence criteria satisfied after 3 iterations ***

         #    Occupation            Energy/Eh            Energy/eV
      -------------------------------------------------------------
         1        2.0000           -0.6428860             -17.4938
       ...           ...                  ...                  ...
        12        2.0000           -0.4619551             -12.5704
        13        2.0000           -0.4616900             -12.5632
        14        2.0000           -0.4449025             -12.1064
        15        2.0000           -0.4243480             -11.5471
        16        2.0000           -0.4001203             -10.8878
        17        2.0000           -0.3921140             -10.6700
        18        1.0000           -0.3180043              -8.6533 (HOMO)
        19                         -0.2236922              -6.0870 (LUMO)
        20                         -0.2109297              -5.7397
        21                         -0.0863114              -2.3487
        22                          0.1039934               2.8298
        23                          0.1376687               3.7462
       ...                                ...                  ...
        35                          0.6596886              17.9510
      -------------------------------------------------------------
                  HL-Gap            0.0943121 Eh            2.5664 eV
             Fermi-level           -0.3129537 Eh           -8.5159 eV

 SCC (total)                   0 d,  0 h,  0 min,  0.338 sec
 SCC setup                      ...        0 min,  0.000 sec (  0.055%)
 Dispersion                     ...        0 min,  0.000 sec (  0.017%)
 classical contributions        ...        0 min,  0.000 sec (  0.004%)
 integral evaluation            ...        0 min,  0.001 sec (  0.210%)
 iterations                     ...        0 min,  0.282 sec ( 83.646%)
 molecular gradient             ...        0 min,  0.054 sec ( 15.985%)
 printout                       ...        0 min,  0.000 sec (  0.066%)

         :::::::::::::::::::::::::::::::::::::::::::::::::::::
         ::                     SUMMARY                     ::
         :::::::::::::::::::::::::::::::::::::::::::::::::::::
         :: total energy             -18.449867198015 Eh    ::
         :: total w/o Gsasa/hb       -18.441945326161 Eh    ::
         :: gradient norm              0.000230426731 Eh/a0 ::
         :: HOMO-LUMO gap              2.566363494929 eV    ::
         ::.................................................::
         :: SCC energy               -18.802323728979 Eh    ::
         :: -> isotropic ES            0.002130308328 Eh    ::
         :: -> anisotropic ES          0.002667954687 Eh    ::
         :: -> anisotropic XC          0.012982133874 Eh    ::
         :: -> dispersion             -0.009792234616 Eh    ::
         :: -> Gsolv                  -0.008217305654 Eh    ::
         ::    -> Gelec               -0.000295433800 Eh    ::
         ::    -> Gsasa               -0.012070569215 Eh    ::
         ::    -> Ghb                  0.000000000000 Eh    ::
         ::    -> Gshift               0.004148697361 Eh    ::
         :: repulsion energy           0.352444640599 Eh    ::
         :: add. restraining           0.000000000000 Eh    ::
         :: total charge               0.000000000000 e     ::
         :::::::::::::::::::::::::::::::::::::::::::::::::::::

           -------------------------------------------------
          |                Property Printout                |
           -------------------------------------------------

    * Orbital Energies and Occupations

         #    Occupation            Energy/Eh            Energy/eV
      -------------------------------------------------------------
         1        2.0000           -0.6428860             -17.4938
       ...           ...                  ...                  ...
         6        2.0000           -0.5580969             -15.1866
         7        2.0000           -0.5205169             -14.1640
         8        2.0000           -0.4986167             -13.5681
         9        2.0000           -0.4928128             -13.4101
        10        2.0000           -0.4890633             -13.3081
        11        2.0000           -0.4745647             -12.9136
        12        2.0000           -0.4619551             -12.5704
        13        2.0000           -0.4616900             -12.5632
        14        2.0000           -0.4449025             -12.1064
        15        2.0000           -0.4243480             -11.5471
        16        2.0000           -0.4001203             -10.8878
        17        2.0000           -0.3921140             -10.6700
        18        1.0000           -0.3180043              -8.6533 (HOMO)
        19                         -0.2236922              -6.0870 (LUMO)
        20                         -0.2109297              -5.7397
        21                         -0.0863114              -2.3487
        22                          0.1039934               2.8298
        23                          0.1376687               3.7462
        24                          0.1620011               4.4083
        25                          0.1686634               4.5896
        26                          0.1811178               4.9285
        27                          0.2029824               5.5234
        28                          0.2253875               6.1331
        29                          0.2335714               6.3558
       ...                                ...                  ...
        35                          0.6596886              17.9510
      -------------------------------------------------------------
                  HL-Gap            0.0943121 Eh            2.5664 eV
             Fermi-level           -0.3129537 Eh           -8.5159 eV

     #   Z          covCN         q      C6AA      α(0)
     1   6 C        2.026    -0.080    33.188     9.304
     2   6 C        2.916    -0.038    28.953     8.824
     3   6 C        2.937    -0.039    28.968     8.827
     4   6 C        2.961     0.029    27.356     8.579
     5   6 C        2.914    -0.023    28.588     8.768
     6   6 C        2.930    -0.033    28.831     8.806
     7   1 H        0.925     0.034     2.528     2.487
     8   1 H        0.925     0.038     2.473     2.459
     9   1 H        0.926     0.040     2.448     2.447
    10   1 H        0.926     0.034     2.529     2.487
    11   6 C        3.756    -0.107    22.591     6.777
    12   1 H        0.925     0.048     2.340     2.392
    13   1 H        0.925     0.048     2.340     2.392
    14   1 H        0.925     0.048     2.341     2.392

 Mol. C6AA /au·bohr⁶  :       2313.282101
 Mol. C8AA /au·bohr⁸  :      56616.038555
 Mol. α(0) /au        :         76.939667


Wiberg/Mayer (AO) data.
largest (>0.10) Wiberg bond orders for each atom

 ---------------------------------------------------------------------------
     #   Z sym  total        # sym  WBO       # sym  WBO       # sym  WBO
 ---------------------------------------------------------------------------
     1   6 C    3.102 --     5 C    1.477     4 C    1.439     2 C    0.105
     2   6 C    3.991 --     3 C    1.455     6 C    1.442     7 H    0.964
                             1 C    0.105
     3   6 C    3.935 --     2 C    1.455     4 C    1.353     8 H    0.960
                             5 C    0.115
     4   6 C    3.953 --     1 C    1.439     3 C    1.353    11 C    1.016
                             6 C    0.114
     5   6 C    3.958 --     1 C    1.477     6 C    1.381     9 H    0.958
                             3 C    0.115
     6   6 C    3.934 --     2 C    1.442     5 C    1.381    10 H    0.964
                             4 C    0.114
     7   1 H    0.990 --     2 C    0.964
     8   1 H    0.987 --     3 C    0.960
     9   1 H    0.984 --     5 C    0.958
    10   1 H    0.989 --     6 C    0.964
    11   6 C    3.984 --     4 C    1.016    14 H    0.986    12 H    0.972
                            13 H    0.972
    12   1 H    0.998 --    11 C    0.972
    13   1 H    0.998 --    11 C    0.972
    14   1 H    0.996 --    11 C    0.986
 ---------------------------------------------------------------------------

Topologies differ in total number of bonds
Writing topology from bond orders to xtbtopo.mol

molecular dipole:
                 x           y           z       tot (Debye)
 q only:        0.169      -0.182       0.000
   full:        0.067      -0.338       0.000       0.876
molecular quadrupole (traceless):
                xx          xy          yy          xz          yz          zz
 q only:        3.093       0.051      -1.684       0.002      -0.000      -1.409
  q+dip:        5.460      -1.648      -1.270       0.005      -0.003      -4.190
   full:        4.204      -1.202      -2.428       0.003      -0.001      -1.776

           -------------------------------------------------
          |                Geometry Summary                 |
           -------------------------------------------------

      molecular mass/u    :       91.1307366
   center of mass at/Å    :        0.2105579       1.6102083      -0.0002693
  moments of inertia/u·Å² :        0.8434559E+02   0.1987112E+03   0.2799242E+03
rotational constants/cm⁻¹ :        0.1998638E+00   0.8483485E-01   0.6022212E-01

 * 13 selected distances

     #   Z          #   Z                                           value/Å
     2   6 C        3   6 C                                       1.3827440
     1   6 C        4   6 C                                       1.3683788
     3   6 C        4   6 C                                       1.3999474 (max)
     1   6 C        5   6 C                                       1.3626073
     2   6 C        6   6 C                                       1.3843767
     5   6 C        6   6 C                                       1.3943118
     2   6 C        7   1 H                                       1.0814138
     3   6 C        8   1 H                                       1.0819944
     5   6 C        9   1 H                                       1.0803958 (min)
     6   6 C       10   1 H                                       1.0808928
    11   6 C       12   1 H                                       1.0896815
    11   6 C       13   1 H                                       1.0896818
    11   6 C       14   1 H                                       1.0869274

 * 2 distinct bonds (by element types)

   Z      Z             #   av. dist./Å        max./Å        min./Å
   1 H    6 C           7     1.0844268     1.0896818     1.0803958
   6 C    6 C           6     1.3820610     1.3999474     1.3626073


optimized geometry written to: xtbopt.xyz


           -------------------------------------------------
          | TOTAL ENERGY              -18.449867198015 Eh   |
          | GRADIENT NORM               0.000230426731 Eh/α |
          | HOMO-LUMO GAP               2.566363494929 eV   |
           -------------------------------------------------

------------------------------------------------------------------------
 * finished run on 2022/11/14 at 22:11:59.627     
------------------------------------------------------------------------
 total:
 * wall-time:     0 d,  0 h,  0 min,  7.846 sec
 *  cpu-time:     0 d,  0 h,  0 min, 40.766 sec
 * ratio c/w:     5.196 speedup
 SCF:
 * wall-time:     0 d,  0 h,  0 min,  1.988 sec
 *  cpu-time:     0 d,  0 h,  0 min,  9.203 sec
 * ratio c/w:     4.629 speedup
 ANC optimizer:
 * wall-time:     0 d,  0 h,  0 min,  5.734 sec
 *  cpu-time:     0 d,  0 h,  0 min, 30.828 sec
 * ratio c/w:     5.376 speedup

