      -----------------------------------------------------------      
     |                   =====================                   |     
     |                           x T B                           |     
     |                   =====================                   |     
     |                         S. Grimme                         |     
     |          Mulliken Center for Theoretical Chemistry        |     
     |                    University of Bonn                     |     
      -----------------------------------------------------------      

   * xtb version 6.5.1 (579679a) compiled by 'ehlert@majestix' on 2022-07-11

   xtb is free software: you can redistribute it and/or modify it under
   the terms of the GNU Lesser General Public License as published by
   the Free Software Foundation, either version 3 of the License, or
   (at your option) any later version.
   
   xtb is distributed in the hope that it will be useful,
   but WITHOUT ANY WARRANTY; without even the implied warranty of
   MERCHANTABILITY or FITNESS FOR A PARTICULAR PURPOSE.  See the
   GNU Lesser General Public License for more details.
   
   Cite this work as:
   * C. Bannwarth, E. Caldeweyher, S. Ehlert, A. Hansen, P. Pracht,
     J. Seibert, S. Spicher, S. Grimme, WIREs Comput. Mol. Sci., 2020, 11,
     e01493. DOI: 10.1002/wcms.1493
   
   for GFN2-xTB:
   * C. Bannwarth, S. Ehlert and S. Grimme., J. Chem. Theory Comput., 2019,
     15, 1652-1671. DOI: 10.1021/acs.jctc.8b01176
   for GFN1-xTB:
   * S. Grimme, C. Bannwarth, P. Shushkov, J. Chem. Theory Comput., 2017,
     13, 1989-2009. DOI: 10.1021/acs.jctc.7b00118
   for GFN0-xTB:
   * P. Pracht, E. Caldeweyher, S. Ehlert, S. Grimme, ChemRxiv, 2019, preprint.
     DOI: 10.26434/chemrxiv.8326202.v1
   for GFN-FF:
   * S. Spicher and S. Grimme, Angew. Chem. Int. Ed., 2020, 59, 15665-15673.
     DOI: 10.1002/anie.202004239
   
   for ALPB and GBSA implicit solvation:
   * S. Ehlert, M. Stahn, S. Spicher, S. Grimme, J. Chem. Theory Comput.,
     2021, 17, 4250-4261. DOI: 10.1021/acs.jctc.1c00471
   
   for DFT-D4:
   * E. Caldeweyher, C. Bannwarth and S. Grimme, J. Chem. Phys., 2017,
     147, 034112. DOI: 10.1063/1.4993215
   * E. Caldeweyher, S. Ehlert, A. Hansen, H. Neugebauer, S. Spicher,
     C. Bannwarth and S. Grimme, J. Chem. Phys., 2019, 150, 154122.
     DOI: 10.1063/1.5090222
   * E. Caldeweyher, J.-M. Mewes, S. Ehlert and S. Grimme, Phys. Chem. Chem. Phys.
     2020, 22, 8499-8512. DOI: 10.1039/D0CP00502A
   
   for sTDA-xTB:
   * S. Grimme and C. Bannwarth, J. Chem. Phys., 2016, 145, 054103.
     DOI: 10.1063/1.4959605
   
   in the mass-spec context:
   * V. Asgeirsson, C. Bauer and S. Grimme, Chem. Sci., 2017, 8, 4879.
     DOI: 10.1039/c7sc00601b
   * J. Koopman and S. Grimme, ACS Omega 2019, 4, 12, 15120-15133.
     DOI: 10.1021/acsomega.9b02011
   
   for metadynamics refer to:
   * S. Grimme, J. Chem. Theory Comput., 2019, 155, 2847-2862
     DOI: 10.1021/acs.jctc.9b00143
   
   for SPH calculations refer to:
   * S. Spicher and S. Grimme, J. Chem. Theory Comput., 2021, 17, 1701-1714
     DOI: 10.1021/acs.jctc.0c01306
   
   with help from (in alphabetical order)
   P. Atkinson, C. Bannwarth, F. Bohle, G. Brandenburg, E. Caldeweyher
   M. Checinski, S. Dohm, S. Ehlert, S. Ehrlich, I. Gerasimov, C. Hölzer
   A. Katbashev, J. Koopman, C. Lavigne, S. Lehtola, F. März, M. Müller,
   F. Musil, H. Neugebauer, J. Pisarek, C. Plett, P. Pracht, F. Pultar,
   J. Seibert, P. Shushkov, S. Spicher, M. Stahn, M. Steiner, T. Strunk,
   J. Stückrath, T. Rose, and J. Unsleber
   
 * started run on 2022/10/30 at 19:07:52.366     

           -------------------------------------------------
          |                Calculation Setup                |
           -------------------------------------------------

          program call               : xtb [Ir+3]_1202033-19-9_SP1.xyz --gfn2 --chrg 0 --uhf 1 --alpb ch2cl2 --opt 1
          hostname                   : cmp002
          coordinate file            : [Ir+3]_1202033-19-9_SP1.xyz
          omp threads                :                     8

   ID    Z sym.   atoms
    1    6 C      1, 3-8, 10-13, 16-21, 23-27, 29, 30
    2    8 O      2, 22, 28, 31
    3   15 P      9, 15
    4   77 Ir     14
    5    1 H      32-63

           -------------------------------------------------
          |                 G F N 2 - x T B                 |
           -------------------------------------------------

        Reference                      10.1021/acs.jctc.8b01176
      * Hamiltonian:
        H0-scaling (s, p, d)           1.850000    2.230000    2.230000
        zeta-weighting                 0.500000
      * Dispersion:
        s8                             2.700000
        a1                             0.520000
        a2                             5.000000
        s9                             5.000000
      * Repulsion:
        kExp                           1.500000    1.000000
        rExp                           1.000000
      * Coulomb:
        alpha                          2.000000
        third order                    shell-resolved
        anisotropic                    true
        a3                             3.000000
        a5                             4.000000
        cn-shift                       1.200000
        cn-exp                         4.000000
        max-rad                        5.000000

      * Solvation model:               ALPB
        Solvent                        ch2cl2
        Parameter file                 internal GFN2-xTB/ALPB
        Dielectric constant                8.9300E+00
        Reference state                gsolv [1 M gas/solution]
        Free energy shift                  4.1487E-03 Eh       2.6033E+00 kcal/mol
        Temperature                        2.9815E+02 K
        Density                            1.3300E+00 kg/L
        Solvent mass                       8.4930E+01 g/mol
        Interaction kernel             P16
        Born radius scaling (c1)           1.5691E+00
        Born radii integrator          GBOBC
        Born offset                        0.0000E+00 a0       0.0000E+00 AA
        H-bond correction              false
        Ion screening                  false
        Surface tension                    1.0000E-05 Eh       1.5569E+01 dyn/cm
        Grid points                               230 per atom

          ...................................................
          :                      SETUP                      :
          :.................................................:
          :  # basis functions                 174          :
          :  # atomic orbitals                 171          :
          :  # shells                           97          :
          :  # electrons                       171          :
          :  max. iterations                   250          :
          :  Hamiltonian                  GFN2-xTB          :
          :  restarted?                      false          :
          :  GBSA solvation                   true          :
          :  PC potential                    false          :
          :  electronic temp.          300.0000000     K    :
          :  accuracy                    1.0000000          :
          :  -> integral cutoff          0.2500000E+02      :
          :  -> integral neglect         0.1000000E-07      :
          :  -> SCF convergence          0.1000000E-05 Eh   :
          :  -> wf. convergence          0.1000000E-03 e    :
          :  Broyden damping             0.4000000          :
          ...................................................

 iter      E             dE          RMSdq      gap      omega  full diag
   1    -92.7961682 -0.927962E+02  0.609E+00    0.88       0.0  T
   2    -81.3990692  0.113971E+02  0.108E+01    0.17       1.0  T
   3    -92.2200409 -0.108210E+02  0.485E+00    0.32       1.0  T
   4    -92.9123437 -0.692303E+00  0.371E+00    1.28       1.0  T
   5    -92.7703317  0.142012E+00  0.335E+00    0.27       1.0  T
   6    -93.3598186 -0.589487E+00  0.231E+00    1.16       1.0  T
   7    -93.4893912 -0.129573E+00  0.187E+00    1.13       1.0  T
   8    -93.5480692 -0.586781E-01  0.161E+00    1.13       1.0  T
   9    -93.6678496 -0.119780E+00  0.973E-01    1.08       1.0  T
  10    -93.5795067  0.883429E-01  0.241E+00    0.58       1.0  T
  11    -93.6331131 -0.536063E-01  0.195E+00    0.74       1.0  T
  12    -93.6077409  0.253722E-01  0.219E+00    0.73       1.0  T
  13    -93.7014724 -0.937315E-01  0.903E-01    0.58       1.0  T
  14    -93.7012360  0.236391E-03  0.875E-01    0.56       1.0  T
  15    -93.7163944 -0.151584E-01  0.493E-01    0.66       1.0  T
  16    -93.7223068 -0.591247E-02  0.178E-01    0.71       1.0  T
  17    -93.7213970  0.909798E-03  0.229E-01    0.70       1.0  T
  18    -93.7227242 -0.132719E-02  0.582E-02    0.63       1.0  T
  19    -93.7228068 -0.825470E-04  0.657E-02    0.66       1.0  T
  20    -93.7228059  0.901771E-06  0.512E-02    0.66       1.0  T
  21    -93.7228848 -0.789318E-04  0.218E-02    0.66       1.0  T
  22    -93.7229022 -0.174384E-04  0.591E-03    0.66       2.1  T
  23    -93.7228954  0.686959E-05  0.161E-02    0.66       1.0  T
  24    -93.7229012 -0.585716E-05  0.781E-03    0.66       1.6  T
  25    -93.7229014 -0.173225E-06  0.837E-03    0.66       1.5  T
  26    -93.7229033 -0.186157E-05  0.620E-04    0.66      20.3  T
  27    -93.7229032  0.617370E-07  0.157E-03    0.66       8.0  T
  28    -93.7229032 -0.444260E-07  0.688E-04    0.66      18.3  T
  29    -93.7229032  0.875585E-08  0.107E-03    0.66      11.7  T
  30    -93.7229033 -0.297041E-07  0.154E-04    0.66      81.7  T

   *** convergence criteria satisfied after 30 iterations ***

         #    Occupation            Energy/Eh            Energy/eV
      -------------------------------------------------------------
         1        2.0000           -0.7506882             -20.4273
       ...           ...                  ...                  ...
        80        2.0000           -0.3327443              -9.0544
        81        2.0000           -0.3311400              -9.0108
        82        2.0000           -0.3177963              -8.6477
        83        2.0000           -0.3133256              -8.5260
        84        2.0000           -0.3091222              -8.4116
        85        1.8584           -0.2960326              -8.0555
        86        1.1416           -0.2926080              -7.9623 (HOMO)
        87        0.0000           -0.2683110              -7.3011 (LUMO)
        88                         -0.2555103              -6.9528
        89                         -0.2510426              -6.8312
        90                         -0.2439030              -6.6369
        91                         -0.2290953              -6.2340
       ...                                ...                  ...
       171                          8.5340658             232.2238
      -------------------------------------------------------------
                  HL-Gap            0.0242969 Eh            0.6612 eV
             Fermi-level           -0.2873835 Eh           -7.8201 eV

 SCC (total)                   0 d,  0 h,  0 min,  1.367 sec
 SCC setup                      ...        0 min,  0.003 sec (  0.248%)
 Dispersion                     ...        0 min,  0.001 sec (  0.084%)
 classical contributions        ...        0 min,  0.000 sec (  0.004%)
 integral evaluation            ...        0 min,  0.006 sec (  0.442%)
 iterations                     ...        0 min,  1.344 sec ( 98.281%)
 molecular gradient             ...        0 min,  0.012 sec (  0.875%)
 printout                       ...        0 min,  0.001 sec (  0.064%)

         :::::::::::::::::::::::::::::::::::::::::::::::::::::
         ::                     SUMMARY                     ::
         :::::::::::::::::::::::::::::::::::::::::::::::::::::
         :: total energy             -90.816510693059 Eh    ::
         :: total w/o Gsasa/hb       -90.784315822631 Eh    ::
         :: gradient norm              5.989331244493 Eh/a0 ::
         :: HOMO-LUMO gap              0.661153095242 eV    ::
         ::.................................................::
         :: SCC energy               -93.722903257074 Eh    ::
         :: -> isotropic ES            0.120128474424 Eh    ::
         :: -> anisotropic ES          0.002627180495 Eh    ::
         :: -> anisotropic XC          0.028578966629 Eh    ::
         :: -> dispersion             -0.099336946222 Eh    ::
         :: -> Gsolv                  -0.053441596177 Eh    ::
         ::    -> Gelec               -0.021246725750 Eh    ::
         ::    -> Gsasa               -0.036343567788 Eh    ::
         ::    -> Ghb                  0.000000000000 Eh    ::
         ::    -> Gshift               0.004148697361 Eh    ::
         :: repulsion energy           2.903127935168 Eh    ::
         :: add. restraining           0.000000000000 Eh    ::
         :: total charge               0.000000000004 e     ::
         :::::::::::::::::::::::::::::::::::::::::::::::::::::

      ----------------------------------------------------------- 
     |                   =====================                   |
     |                        A N C O P T                        |
     |                   =====================                   |
     |               Approximate Normal Coordinate               |
     |                Rational Function Optimizer                |
      ----------------------------------------------------------- 

          ...................................................
          :                      SETUP                      :
          :.................................................:
          :   optimization level             tight          :
          :   max. optcycles                   315          :
          :   ANC micro-cycles                  20          :
          :   degrees of freedom               183          :
          :.................................................:
          :   RF solver                   davidson          :
          :   write xtbopt.log                true          :
          :   linear?                        false          :
          :   energy convergence         0.1000000E-05 Eh   :
          :   grad. convergence          0.8000000E-03 Eh/α :
          :   maximium RF displ.         1.0000000          :
          :   Hlow (freq-cutoff)         0.1000000E-01      :
          :   Hmax (freq-cutoff)         5.0000000          :
          :   S6 in model hess.         20.0000000          :
          ...................................................

generating ANC from model Hessian ...
Using Lindh-Hessian (1995)
 Shifting diagonal of input Hessian by   9.756491434854596E-003
 Lowest  eigenvalues of input Hessian
    0.000000    0.000000    0.000000    0.000000    0.000000    0.000000
    0.010000    0.010257    0.010492    0.010646    0.010927    0.011366
    0.011394    0.011830    0.012270    0.013047    0.013598    0.013966
 Highest eigenvalues
    2.434553    2.969637    3.221439    3.941675    7.211443    7.954757
 

........................................................................
.............................. CYCLE    1 ..............................
........................................................................
   1    -93.7229033 -0.937229E+02  0.466E-04    0.66       0.0  T
   2    -93.7229021  0.115724E-05  0.564E-03    0.66       2.2  T
   3    -93.7229032 -0.110732E-05  0.117E-03    0.66      10.8  T
   4    -93.7229033 -0.546432E-07  0.874E-05    0.66     144.1  T
   5    -93.7229033 -0.171696E-09  0.631E-05    0.66     199.8  T
     SCC iter.                  ...        0 min,  0.025 sec
     gradient                   ...        0 min,  0.012 sec
 * total energy  :   -90.8165107 Eh     change       -0.2299458E-09 Eh
   gradient norm :     5.9893309 Eh/α   predicted     0.0000000E+00 (-100.00%)
   displ. norm   :     0.6865336 α      lambda       -0.4077693E+01
   maximum displ.:     0.6130994 α      in ANC's #182, #183, #176, ...

........................................................................
.............................. CYCLE    2 ..............................
........................................................................
   1    -93.7146621 -0.937147E+02  0.164E+00    0.76       0.0  T
   2    -93.0273599  0.687302E+00  0.303E+00    0.59       1.0  T
   3    -93.7909124 -0.763552E+00  0.137E+00    0.97       1.0  T
   4    -93.8037888 -0.128764E-01  0.850E-01    0.34       1.0  T
   5    -93.8169251 -0.131363E-01  0.434E-01    0.50       1.0  T
   6    -93.6842187  0.132706E+00  0.203E+00    0.38       1.0  T
   7    -93.8206358 -0.136417E+00  0.347E-01    0.44       1.0  T
   8    -93.8168478  0.378795E-02  0.394E-01    0.57       1.0  T
   9    -93.8202787 -0.343092E-02  0.311E-01    0.49       1.0  T
  10    -93.8208048 -0.526062E-03  0.271E-01    0.51       1.0  T
  11    -93.8222084 -0.140363E-02  0.165E-01    0.50       1.0  T
  12    -93.8226618 -0.453338E-03  0.840E-02    0.52       1.0  T
  13    -93.8228278 -0.166053E-03  0.250E-02    0.52       1.0  T
  14    -93.8228244  0.342216E-05  0.190E-02    0.52       1.0  T
  15    -93.8228350 -0.106525E-04  0.811E-03    0.52       1.6  T
  16    -93.8228360 -0.972840E-06  0.578E-03    0.52       2.2  T
  17    -93.8228364 -0.402242E-06  0.308E-03    0.52       4.1  T
  18    -93.8228368 -0.368354E-06  0.945E-04    0.52      13.3  T
  19    -93.8228368 -0.224932E-08  0.869E-04    0.52      14.5  T
     SCC iter.                  ...        0 min,  0.076 sec
     gradient                   ...        0 min,  0.011 sec
 * total energy  :   -92.2181398 Eh     change       -0.1401629E+01 Eh
   gradient norm :     0.9260475 Eh/α   predicted    -0.2999825E+01 ( 114.02%)
   displ. norm   :     0.5633526 α      lambda       -0.4108740E+00
   maximum displ.:     0.2579235 α      in ANC's #105, #176, #168, ...

........................................................................
.............................. CYCLE    3 ..............................
........................................................................
   1    -93.6597995 -0.936598E+02  0.262E+00    0.73       0.0  T
   2    -92.6048805  0.105492E+01  0.389E+00    0.73       1.0  T
   3    -93.8022237 -0.119734E+01  0.229E+00    1.42       1.0  T
   4    -93.7865846  0.156390E-01  0.123E+00    0.40       1.0  T
   5    -93.8393641 -0.527795E-01  0.879E-01    0.24       1.0  T
   6    -93.8557079 -0.163438E-01  0.634E-01    0.49       1.0  T
   7    -93.8202549  0.354530E-01  0.102E+00    0.56       1.0  T
   8    -93.8595853 -0.393303E-01  0.503E-01    0.57       1.0  T
   9    -93.8625472 -0.296191E-02  0.384E-01    0.60       1.0  T
  10    -93.8657819 -0.323474E-02  0.245E-01    0.60       1.0  T
  11    -93.8676899 -0.190801E-02  0.599E-02    0.62       1.0  T
  12    -93.8677723 -0.823570E-04  0.169E-02    0.62       1.0  T
  13    -93.8677605  0.118054E-04  0.327E-02    0.63       1.0  T
  14    -93.8677701 -0.964263E-05  0.226E-02    0.63       1.0  T
  15    -93.8677862 -0.161139E-04  0.634E-03    0.63       2.0  T
  16    -93.8677873 -0.112295E-05  0.143E-03    0.63       8.8  T
  17    -93.8677874 -0.396749E-07  0.122E-03    0.63      10.3  T
  18    -93.8677871  0.269778E-06  0.307E-03    0.63       4.1  T
  19    -93.8677874 -0.233458E-06  0.133E-03    0.62       9.5  T
  20    -93.8677874 -0.375514E-07  0.824E-04    0.62      15.3  T
  21    -93.8677874 -0.131960E-07  0.477E-04    0.62      26.4  T
     SCC iter.                  ...        0 min,  0.085 sec
     gradient                   ...        0 min,  0.012 sec
 * total energy  :   -92.5019001 Eh     change       -0.2837603E+00 Eh
   gradient norm :     0.4258951 Eh/α   predicted    -0.2706356E+00 (  -4.63%)
   displ. norm   :     0.5565486 α      lambda       -0.1702123E+00
   maximum displ.:     0.1408585 α      in ANC's #53, #63, #176, ...

........................................................................
.............................. CYCLE    4 ..............................
........................................................................
   1    -93.7530265 -0.937530E+02  0.219E+00    0.85       0.0  T
   2    -92.7617143  0.991312E+00  0.369E+00    0.75       1.0  T
   3    -93.8840946 -0.112238E+01  0.189E+00    1.46       1.0  T
   4    -93.8616289  0.224657E-01  0.117E+00    0.48       1.0  T
   5    -93.9009121 -0.392833E-01  0.758E-01    0.41       1.0  T
   6    -93.9107723 -0.986014E-02  0.552E-01    0.63       1.0  T
   7    -93.8981411  0.126311E-01  0.803E-01    0.71       1.0  T
   8    -93.9202893 -0.221482E-01  0.299E-01    0.71       1.0  T
   9    -93.9204658 -0.176454E-03  0.254E-01    0.76       1.0  T
  10    -93.9232462 -0.278044E-02  0.628E-02    0.76       1.0  T
  11    -93.9233340 -0.877885E-04  0.188E-02    0.78       1.0  T
  12    -93.9233452 -0.112009E-04  0.978E-03    0.78       1.3  T
  13    -93.9233476 -0.233478E-05  0.427E-03    0.78       3.0  T
  14    -93.9233474  0.178494E-06  0.380E-03    0.78       3.3  T
  15    -93.9233474 -0.788887E-08  0.361E-03    0.78       3.5  T
  16    -93.9233478 -0.411729E-06  0.180E-03    0.78       7.0  T
  17    -93.9233479 -0.840246E-07  0.812E-04    0.78      15.5  T
  18    -93.9233479 -0.622663E-08  0.792E-04    0.78      15.9  T
     SCC iter.                  ...        0 min,  0.073 sec
     gradient                   ...        0 min,  0.012 sec
 * total energy  :   -92.6307178 Eh     change       -0.1288178E+00 Eh
   gradient norm :     0.2242036 Eh/α   predicted    -0.1114676E+00 ( -13.47%)
   displ. norm   :     0.6788199 α      lambda       -0.1067984E+00
   maximum displ.:     0.2059315 α      in ANC's #53, #105, #63, ...

........................................................................
.............................. CYCLE    5 ..............................
........................................................................
   1    -93.8242008 -0.938242E+02  0.207E+00    1.02       0.0  T
   2    -92.9156227  0.908578E+00  0.340E+00    0.70       1.0  T
   3    -93.7914310 -0.875808E+00  0.237E+00    1.56       1.0  T
   4    -93.8455172 -0.540862E-01  0.122E+00    0.80       1.0  T
   5    -93.8992276 -0.537105E-01  0.924E-01    0.59       1.0  T
   6    -93.9269620 -0.277343E-01  0.619E-01    0.82       1.0  T
   7    -93.9322617 -0.529975E-02  0.501E-01    0.95       1.0  T
   8    -93.9370439 -0.478221E-02  0.456E-01    0.96       1.0  T
   9    -93.9420401 -0.499615E-02  0.243E-01    1.02       1.0  T
  10    -93.9444052 -0.236517E-02  0.262E-02    1.02       1.0  T
  11    -93.9444091 -0.383099E-05  0.108E-02    1.02       1.2  T
  12    -93.9444093 -0.246233E-06  0.750E-03    1.02       1.7  T
  13    -93.9444059  0.340237E-05  0.118E-02    1.02       1.1  T
  14    -93.9444002  0.567190E-05  0.157E-02    1.02       1.0  T
  15    -93.9444096 -0.935062E-05  0.325E-03    1.02       3.9  T
  16    -93.9444098 -0.210031E-06  0.250E-03    1.02       5.0  T
  17    -93.9444093  0.469286E-06  0.428E-03    1.02       2.9  T
  18    -93.9444100 -0.654294E-06  0.749E-04    1.02      16.8  T
  19    -93.9444100 -0.173805E-07  0.267E-04    1.02      47.3  T
     SCC iter.                  ...        0 min,  0.076 sec
     gradient                   ...        0 min,  0.011 sec
 * total energy  :   -92.7072385 Eh     change       -0.7652070E-01 Eh
   gradient norm :     0.1266197 Eh/α   predicted    -0.7800539E-01 (   1.94%)
   displ. norm   :     0.6688150 α      lambda       -0.4572501E-01
   maximum displ.:     0.2214227 α      in ANC's #41, #53, #44, ...

........................................................................
.............................. CYCLE    6 ..............................
........................................................................
   1    -93.9007749 -0.939008E+02  0.141E+00    1.23       0.0  T
   2    -93.3208990  0.579876E+00  0.267E+00    0.13       1.0  T
   3    -93.9061831 -0.585284E+00  0.130E+00    1.62       1.0  T
   4    -93.9016333  0.454985E-02  0.101E+00    1.07       1.0  T
   5    -93.9288645 -0.272313E-01  0.794E-01    1.00       1.0  T
   6    -93.9470094 -0.181449E-01  0.539E-01    1.17       1.0  T
   7    -93.9257270  0.212825E-01  0.954E-01    1.19       1.0  T
   8    -93.9587172 -0.329903E-01  0.349E-01    1.16       1.0  T
   9    -93.9551218  0.359538E-02  0.420E-01    1.21       1.0  T
  10    -93.9579086 -0.278680E-02  0.316E-01    1.23       1.0  T
  11    -93.9617740 -0.386536E-02  0.295E-02    1.24       1.0  T
  12    -93.9615210  0.253002E-03  0.868E-02    1.24       1.0  T
  13    -93.9617846 -0.263599E-03  0.142E-02    1.24       1.0  T
  14    -93.9617923 -0.771437E-05  0.277E-03    1.24       4.5  T
  15    -93.9617925 -0.204927E-06  0.150E-03    1.24       8.4  T
  16    -93.9617922  0.313646E-06  0.358E-03    1.24       3.5  T
  17    -93.9617921  0.733334E-07  0.384E-03    1.24       3.3  T
  18    -93.9617923 -0.171348E-06  0.260E-03    1.24       4.8  T
  19    -93.9617925 -0.180577E-06  0.146E-03    1.24       8.6  T
  20    -93.9617926 -0.766317E-07  0.386E-04    1.24      32.6  T
  21    -93.9617926 -0.163061E-08  0.298E-04    1.24      42.3  T
     SCC iter.                  ...        0 min,  0.102 sec
     gradient                   ...        0 min,  0.023 sec
 * total energy  :   -92.7402196 Eh     change       -0.3298103E-01 Eh
   gradient norm :     0.1082792 Eh/α   predicted    -0.3308933E-01 (   0.33%)
   displ. norm   :     0.6680758 α      lambda       -0.3103736E-01
   maximum displ.:     0.2272806 α      in ANC's #41, #44, #39, ...

........................................................................
.............................. CYCLE    7 ..............................
........................................................................
   1    -93.9476805 -0.939477E+02  0.877E-01    1.31       0.0  T
   2    -93.8081689  0.139512E+00  0.152E+00    0.44       1.0  T
   3    -93.9658977 -0.157729E+00  0.687E-01    1.23       1.0  T
   4    -93.9390177  0.268800E-01  0.731E-01    1.11       1.0  T
   5    -93.9633408 -0.243231E-01  0.399E-01    1.22       1.0  T
   6    -93.9047386  0.586022E-01  0.130E+00    1.25       1.0  T
   7    -93.9666905 -0.619519E-01  0.373E-01    1.24       1.0  T
   8    -93.9600497  0.664076E-02  0.525E-01    1.21       1.0  T
   9    -93.9651255 -0.507582E-02  0.375E-01    1.23       1.0  T
  10    -93.9689571 -0.383158E-02  0.175E-01    1.24       1.0  T
  11    -93.9699060 -0.948853E-03  0.312E-02    1.25       1.0  T
  12    -93.9698586  0.473285E-04  0.455E-02    1.25       1.0  T
  13    -93.9698903 -0.316311E-04  0.317E-02    1.25       1.0  T
  14    -93.9699263 -0.360387E-04  0.290E-03    1.25       4.3  T
  15    -93.9699240  0.236144E-05  0.716E-03    1.25       1.8  T
  16    -93.9699257 -0.175804E-05  0.432E-03    1.25       2.9  T
  17    -93.9699263 -0.632158E-06  0.516E-04    1.25      24.4  T
  18    -93.9699263  0.106108E-08  0.409E-04    1.25      30.8  T
     SCC iter.                  ...        0 min,  0.080 sec
     gradient                   ...        0 min,  0.011 sec
 * total energy  :   -92.7629098 Eh     change       -0.2269022E-01 Eh
   gradient norm :     0.0849729 Eh/α   predicted    -0.2244507E-01 (  -1.08%)
   displ. norm   :     0.6959104 α      lambda       -0.2279963E-01
   maximum displ.:     0.2474982 α      in ANC's #41, #44, #21, ...

........................................................................
.............................. CYCLE    8 ..............................
........................................................................
   1    -93.9736638 -0.939737E+02  0.698E-01    1.33       0.0  T
   2    -93.8660189  0.107645E+00  0.132E+00    0.69       1.0  T
   3    -93.9764953 -0.110476E+00  0.438E-01    1.33       1.0  T
   4    -93.9561908  0.203045E-01  0.745E-01    1.19       1.0  T
   5    -93.9706313 -0.144405E-01  0.561E-01    1.28       1.0  T
   6    -93.8995134  0.711179E-01  0.157E+00    1.32       1.0  T
   7    -93.9866071 -0.870936E-01  0.216E-01    1.34       1.0  T
   8    -93.9726684  0.139387E-01  0.628E-01    1.27       1.0  T
   9    -93.9779380 -0.526960E-02  0.509E-01    1.30       1.0  T
  10    -93.9838634 -0.592538E-02  0.311E-01    1.32       1.0  T
  11    -93.9866712 -0.280783E-02  0.122E-01    1.33       1.0  T
  12    -93.9869200 -0.248775E-03  0.711E-02    1.33       1.0  T
  13    -93.9870493 -0.129321E-03  0.288E-02    1.33       1.0  T
  14    -93.9870590 -0.970677E-05  0.274E-02    1.33       1.0  T
  15    -93.9870780 -0.189539E-04  0.589E-03    1.33       2.1  T
  16    -93.9870781 -0.142702E-06  0.262E-03    1.33       4.8  T
  17    -93.9870782 -0.607294E-07  0.164E-03    1.33       7.7  T
  18    -93.9870783 -0.112379E-06  0.377E-04    1.33      33.4  T
  19    -93.9870783  0.156654E-07  0.765E-04    1.33      16.5  T
     SCC iter.                  ...        0 min,  0.087 sec
     gradient                   ...        0 min,  0.012 sec
 * total energy  :   -92.7801397 Eh     change       -0.1722992E-01 Eh
   gradient norm :     0.0629214 Eh/α   predicted    -0.1692064E-01 (  -1.79%)
   displ. norm   :     0.6774428 α      lambda       -0.1475338E-01
   maximum displ.:     0.2044319 α      in ANC's #41, #8, #21, ...

........................................................................
.............................. CYCLE    9 ..............................
........................................................................
   1    -93.9919354 -0.939919E+02  0.437E-01    1.35       0.0  T
   2    -93.9182375  0.736979E-01  0.106E+00    0.95       1.0  T
   3    -93.9958562 -0.776187E-01  0.227E-01    1.36       1.0  T
   4    -93.9786331  0.172231E-01  0.597E-01    1.28       1.0  T
   5    -93.9854848 -0.685172E-02  0.471E-01    1.32       1.0  T
   6    -93.9017640  0.837209E-01  0.165E+00    1.33       1.0  T
   7    -93.9974787 -0.957148E-01  0.132E-01    1.37       1.0  T
   8    -93.9918458  0.563290E-02  0.410E-01    1.33       1.0  T
   9    -93.9961297 -0.428389E-02  0.217E-01    1.35       1.0  T
  10    -93.9973317 -0.120200E-02  0.104E-01    1.36       1.0  T
  11    -93.9974483 -0.116563E-03  0.765E-02    1.35       1.0  T
  12    -93.9976434 -0.195165E-03  0.139E-02    1.36       1.0  T
  13    -93.9976489 -0.547395E-05  0.593E-03    1.36       2.1  T
  14    -93.9976490 -0.563905E-07  0.446E-03    1.36       2.8  T
  15    -93.9976471  0.187547E-05  0.802E-03    1.36       1.6  T
  16    -93.9976495 -0.237510E-05  0.500E-04    1.36      25.2  T
  17    -93.9976495 -0.662936E-09  0.502E-04    1.36      25.1  T
  18    -93.9976495 -0.843367E-08  0.582E-05    1.36     216.4  T
     SCC iter.                  ...        0 min,  0.080 sec
     gradient                   ...        0 min,  0.012 sec
 * total energy  :   -92.7919802 Eh     change       -0.1184053E-01 Eh
   gradient norm :     0.0462112 Eh/α   predicted    -0.1076207E-01 (  -9.11%)
   displ. norm   :     0.6922349 α      lambda       -0.1058921E-01
   maximum displ.:     0.2157386 α      in ANC's #8, #2, #6, ...

........................................................................
.............................. CYCLE   10 ..............................
........................................................................
   1    -93.9968568 -0.939969E+02  0.382E-01    1.37       0.0  T
   2    -93.9294878  0.673690E-01  0.102E+00    0.98       1.0  T
   3    -94.0009456 -0.714578E-01  0.197E-01    1.37       1.0  T
   4    -93.9850816  0.158640E-01  0.553E-01    1.32       1.0  T
   5    -93.9989338 -0.138522E-01  0.213E-01    1.37       1.0  T
   6    -93.9278280  0.711058E-01  0.142E+00    1.37       1.0  T
   7    -94.0014326 -0.736046E-01  0.575E-02    1.38       1.0  T
   8    -93.9967598  0.467278E-02  0.366E-01    1.35       1.0  T
   9    -94.0006681 -0.390829E-02  0.167E-01    1.37       1.0  T
  10    -94.0011586 -0.490481E-03  0.105E-01    1.37       1.0  T
  11    -94.0014798 -0.321243E-03  0.368E-02    1.37       1.0  T
  12    -94.0015001 -0.202981E-04  0.245E-02    1.37       1.0  T
  13    -94.0015228 -0.226514E-04  0.636E-03    1.37       2.0  T
  14    -94.0015233 -0.526984E-06  0.462E-03    1.37       2.7  T
  15    -94.0015237 -0.378463E-06  0.169E-03    1.37       7.4  T
  16    -94.0015238 -0.129412E-06  0.383E-04    1.37      32.9  T
  17    -94.0015238  0.153449E-09  0.320E-04    1.37      39.4  T
     SCC iter.                  ...        0 min,  0.076 sec
     gradient                   ...        0 min,  0.012 sec
 * total energy  :   -92.8005941 Eh     change       -0.8613839E-02 Eh
   gradient norm :     0.0365904 Eh/α   predicted    -0.7831743E-02 (  -9.08%)
   displ. norm   :     0.6952365 α      lambda       -0.7867375E-02
   maximum displ.:     0.2293259 α      in ANC's #2, #8, #6, ...

........................................................................
.............................. CYCLE   11 ..............................
........................................................................
   1    -93.9993971 -0.939994E+02  0.371E-01    1.40       0.0  T
   2    -93.9304997  0.688974E-01  0.103E+00    0.96       1.0  T
   3    -94.0033470 -0.728473E-01  0.321E-01    1.38       1.0  T
   4    -93.9917397  0.116072E-01  0.488E-01    1.35       1.0  T
   5    -93.9390634  0.526763E-01  0.135E+00    1.41       1.0  T
   6    -94.0039508 -0.648873E-01  0.918E-02    1.40       1.0  T
   7    -94.0039872 -0.364077E-04  0.732E-02    1.40       1.0  T
   8    -94.0043071 -0.319971E-03  0.311E-02    1.40       1.0  T
   9    -94.0041979  0.109288E-03  0.562E-02    1.39       1.0  T
  10    -94.0042923 -0.944219E-04  0.340E-02    1.39       1.0  T
  11    -94.0043248 -0.325488E-04  0.181E-02    1.39       1.0  T
  12    -94.0043237  0.115780E-05  0.172E-02    1.39       1.0  T
  13    -94.0043351 -0.113860E-04  0.191E-03    1.40       6.6  T
  14    -94.0043336  0.144911E-05  0.649E-03    1.40       1.9  T
  15    -94.0043350 -0.139969E-05  0.227E-03    1.40       5.5  T
  16    -94.0043352 -0.178132E-06  0.311E-04    1.39      40.6  T
  17    -94.0043352 -0.316196E-08  0.150E-04    1.40      84.0  T
     SCC iter.                  ...        0 min,  0.079 sec
     gradient                   ...        0 min,  0.011 sec
 * total energy  :   -92.8070410 Eh     change       -0.6446929E-02 Eh
   gradient norm :     0.0295640 Eh/α   predicted    -0.5835063E-02 (  -9.49%)
   displ. norm   :     0.6965926 α      lambda       -0.6138084E-02
   maximum displ.:     0.2598668 α      in ANC's #2, #8, #6, ...

........................................................................
.............................. CYCLE   12 ..............................
........................................................................
   1    -93.9987201 -0.939987E+02  0.372E-01    1.42       0.0  T
   2    -93.9301850  0.685351E-01  0.104E+00    0.94       1.0  T
   3    -94.0024413 -0.722562E-01  0.354E-01    1.40       1.0  T
   4    -93.9928089  0.963239E-02  0.472E-01    1.38       1.0  T
   5    -93.9149825  0.778264E-01  0.154E+00    1.42       1.0  T
   6    -94.0030168 -0.880344E-01  0.152E-01    1.43       1.0  T
   7    -94.0028483  0.168569E-03  0.174E-01    1.40       1.0  T
   8    -94.0036804 -0.832103E-03  0.889E-02    1.42       1.0  T
   9    -94.0038123 -0.131895E-03  0.547E-02    1.41       1.0  T
  10    -94.0039036 -0.913109E-04  0.791E-03    1.42       1.6  T
  11    -94.0038805  0.230569E-04  0.231E-02    1.41       1.0  T
  12    -94.0039029 -0.224010E-04  0.510E-03    1.41       2.5  T
  13    -94.0039029  0.477954E-07  0.531E-03    1.42       2.4  T
  14    -94.0039041 -0.124268E-05  0.495E-04    1.42      25.5  T
  15    -94.0039040  0.716532E-07  0.129E-03    1.42       9.8  T
  16    -94.0039040  0.398658E-07  0.168E-03    1.42       7.5  T
  17    -94.0039041 -0.951033E-07  0.796E-04    1.42      15.8  T
  18    -94.0039041 -0.228373E-07  0.525E-05    1.42     240.0  T
     SCC iter.                  ...        0 min,  0.093 sec
     gradient                   ...        0 min,  0.012 sec
 * total energy  :   -92.8119709 Eh     change       -0.4929899E-02 Eh
   gradient norm :     0.0244918 Eh/α   predicted    -0.4558274E-02 (  -7.54%)
   displ. norm   :     0.6829236 α      lambda       -0.4648260E-02
   maximum displ.:     0.2878287 α      in ANC's #2, #7, #6, ...

........................................................................
.............................. CYCLE   13 ..............................
........................................................................
   1    -93.9996505 -0.939997E+02  0.359E-01    1.43       0.0  T
   2    -93.9328091  0.668414E-01  0.102E+00    0.93       1.0  T
   3    -94.0022098 -0.694007E-01  0.395E-01    1.40       1.0  T
   4    -93.9950558  0.715400E-02  0.445E-01    1.39       1.0  T
   5    -93.9074545  0.876013E-01  0.161E+00    1.43       1.0  T
   6    -94.0046221 -0.971676E-01  0.721E-02    1.43       1.0  T
   7    -94.0020377  0.258444E-02  0.270E-01    1.41       1.0  T
   8    -94.0043520 -0.231430E-02  0.117E-01    1.42       1.0  T
   9    -94.0045952 -0.243184E-03  0.694E-02    1.42       1.0  T
  10    -94.0046966 -0.101378E-03  0.331E-02    1.42       1.0  T
  11    -94.0047117 -0.151814E-04  0.185E-02    1.42       1.0  T
  12    -94.0047260 -0.142372E-04  0.533E-03    1.43       2.4  T
  13    -94.0047239  0.203129E-05  0.738E-03    1.42       1.7  T
  14    -94.0047262 -0.225139E-05  0.287E-03    1.43       4.4  T
  15    -94.0047265 -0.314408E-06  0.461E-04    1.43      27.3  T
  16    -94.0047264  0.797318E-07  0.142E-03    1.43       8.9  T
  17    -94.0047265 -0.450834E-07  0.106E-03    1.43      11.9  T
  18    -94.0047265 -0.430604E-07  0.269E-04    1.43      46.9  T
     SCC iter.                  ...        0 min,  0.135 sec
     gradient                   ...        0 min,  0.011 sec
 * total energy  :   -92.8154854 Eh     change       -0.3514498E-02 Eh
   gradient norm :     0.0219412 Eh/α   predicted    -0.3408077E-02 (  -3.03%)
   displ. norm   :     0.6161557 α      lambda       -0.3128177E-02
   maximum displ.:     0.2953367 α      in ANC's #2, #7, #6, ...

........................................................................
.............................. CYCLE   14 ..............................
........................................................................
   1    -94.0020631 -0.940021E+02  0.300E-01    1.45       0.0  T
   2    -93.9476815  0.543816E-01  0.913E-01    1.03       1.0  T
   3    -94.0052119 -0.575304E-01  0.203E-01    1.44       1.0  T
   4    -93.9974928  0.771912E-02  0.403E-01    1.41       1.0  T
   5    -93.9826098  0.148830E-01  0.770E-01    1.47       1.0  T
   6    -94.0044813 -0.218715E-01  0.150E-01    1.45       1.0  T
   7    -94.0044219  0.594335E-04  0.162E-01    1.43       1.0  T
   8    -94.0050957 -0.673764E-03  0.894E-02    1.44       1.0  T
   9    -94.0052789 -0.183212E-03  0.555E-02    1.44       1.0  T
  10    -94.0053918 -0.112881E-03  0.127E-02    1.44       1.0  T
  11    -94.0053945 -0.271687E-05  0.751E-03    1.44       1.7  T
  12    -94.0053961 -0.165323E-05  0.475E-03    1.44       2.7  T
  13    -94.0053968 -0.680749E-06  0.234E-03    1.44       5.4  T
  14    -94.0053970 -0.226361E-06  0.184E-04    1.44      68.6  T
  15    -94.0053970  0.424692E-07  0.103E-03    1.44      12.2  T
  16    -94.0053970 -0.375858E-07  0.382E-04    1.44      33.0  T
     SCC iter.                  ...        0 min,  0.067 sec
     gradient                   ...        0 min,  0.011 sec
 * total energy  :   -92.8177335 Eh     change       -0.2248117E-02 Eh
   gradient norm :     0.0204980 Eh/α   predicted    -0.2157893E-02 (  -4.01%)
   displ. norm   :     0.5326615 α      lambda       -0.1860526E-02
   maximum displ.:     0.2903366 α      in ANC's #2, #7, #20, ...

........................................................................
.............................. CYCLE   15 ..............................
........................................................................
   1    -94.0048777 -0.940049E+02  0.196E-01    1.45       0.0  T
   2    -93.9667417  0.381359E-01  0.761E-01    1.19       1.0  T
   3    -94.0059400 -0.391983E-01  0.849E-02    1.46       1.0  T
   4    -93.9996034  0.633668E-02  0.356E-01    1.42       1.0  T
   5    -93.9979342  0.166921E-02  0.403E-01    1.41       1.0  T
   6    -93.9767938  0.211403E-01  0.880E-01    1.47       1.0  T
   7    -94.0017230 -0.249292E-01  0.332E-01    1.47       1.0  T
   8    -94.0047079 -0.298489E-02  0.205E-01    1.44       1.0  T
   9    -94.0059294 -0.122144E-02  0.921E-02    1.45       1.0  T
  10    -94.0061444 -0.215040E-03  0.483E-02    1.45       1.0  T
  11    -94.0062206 -0.761866E-04  0.149E-02    1.45       1.0  T
  12    -94.0062294 -0.884714E-05  0.106E-03    1.45      11.9  T
  13    -94.0062294  0.228200E-07  0.144E-03    1.45       8.7  T
  14    -94.0062295 -0.261317E-07  0.766E-04    1.45      16.4  T
  15    -94.0062293  0.133627E-06  0.206E-03    1.45       6.1  T
  16    -94.0062295 -0.157840E-06  0.239E-04    1.45      52.6  T
     SCC iter.                  ...        0 min,  0.069 sec
     gradient                   ...        0 min,  0.012 sec
 * total energy  :   -92.8191177 Eh     change       -0.1384141E-02 Eh
   gradient norm :     0.0189467 Eh/α   predicted    -0.1194212E-02 ( -13.72%)
   displ. norm   :     0.4788158 α      lambda       -0.1327516E-02
   maximum displ.:     0.2848009 α      in ANC's #2, #7, #20, ...

........................................................................
.............................. CYCLE   16 ..............................
........................................................................
   1    -94.0093958 -0.940094E+02  0.137E-01    1.47       0.0  T
   2    -93.9843380  0.250578E-01  0.633E-01    1.32       1.0  T
   3    -94.0092635 -0.249256E-01  0.117E-01    1.47       1.0  T
   4    -94.0098260 -0.562449E-03  0.554E-02    1.47       1.0  T
   5    -94.0074192  0.240679E-02  0.216E-01    1.45       1.0  T
   6    -94.0095648 -0.214565E-02  0.618E-02    1.46       1.0  T
   7    -94.0088922  0.672647E-03  0.152E-01    1.48       1.0  T
   8    -94.0096900 -0.797845E-03  0.646E-02    1.46       1.0  T
   9    -94.0097722 -0.821365E-04  0.424E-02    1.47       1.0  T
  10    -94.0098189 -0.467233E-04  0.227E-02    1.47       1.0  T
  11    -94.0098341 -0.152004E-04  0.936E-03    1.47       1.3  T
  12    -94.0098381 -0.405146E-05  0.136E-03    1.47       9.2  T
  13    -94.0098380  0.120434E-06  0.212E-03    1.47       6.0  T
  14    -94.0098382 -0.186735E-06  0.104E-04    1.47     120.8  T
  15    -94.0098382 -0.581366E-10  0.629E-05    1.47     200.3  T
     SCC iter.                  ...        0 min,  0.064 sec
     gradient                   ...        0 min,  0.011 sec
 * total energy  :   -92.8201496 Eh     change       -0.1031923E-02 Eh
   gradient norm :     0.0170890 Eh/α   predicted    -0.8159452E-03 ( -20.93%)
   displ. norm   :     0.4865461 α      lambda       -0.1163888E-02
   maximum displ.:     0.3010708 α      in ANC's #2, #7, #20, ...

........................................................................
.............................. CYCLE   17 ..............................
........................................................................
   1    -94.0114115 -0.940114E+02  0.119E-01    1.48       0.0  T
   2    -93.9955506  0.158610E-01  0.520E-01    1.40       1.0  T
   3    -94.0107082 -0.151576E-01  0.156E-01    1.49       1.0  T
   4    -94.0089478  0.176040E-02  0.221E-01    1.50       1.0  T
   5    -94.0109452 -0.199747E-02  0.151E-01    1.48       1.0  T
   6    -94.0096699  0.127533E-02  0.214E-01    1.47       1.0  T
   7    -94.0114745 -0.180461E-02  0.487E-02    1.48       1.0  T
   8    -94.0115774 -0.102877E-03  0.958E-03    1.48       1.3  T
   9    -94.0115701  0.729214E-05  0.190E-02    1.48       1.0  T
  10    -94.0115811 -0.109865E-04  0.689E-03    1.48       1.8  T
  11    -94.0115830 -0.194835E-05  0.240E-03    1.48       5.2  T
  12    -94.0115831 -0.529538E-07  0.204E-03    1.48       6.2  T
  13    -94.0115832 -0.143755E-06  0.583E-04    1.48      21.6  T
  14    -94.0115832  0.196643E-08  0.673E-04    1.48      18.7  T
     SCC iter.                  ...        0 min,  0.057 sec
     gradient                   ...        0 min,  0.012 sec
 * total energy  :   -92.8210678 Eh     change       -0.9182681E-03 Eh
   gradient norm :     0.0167870 Eh/α   predicted    -0.7197119E-03 ( -21.62%)
   displ. norm   :     0.5055116 α      lambda       -0.1067601E-02
   maximum displ.:     0.3215556 α      in ANC's #2, #7, #20, ...

........................................................................
.............................. CYCLE   18 ..............................
........................................................................
   1    -94.0136241 -0.940136E+02  0.121E-01    1.50       0.0  T
   2    -93.9961232  0.175008E-01  0.545E-01    1.41       1.0  T
   3    -94.0129158 -0.167925E-01  0.154E-01    1.51       1.0  T
   4    -94.0125882  0.327586E-03  0.149E-01    1.51       1.0  T
   5    -94.0124132  0.174949E-03  0.188E-01    1.49       1.0  T
   6    -94.0121170  0.296185E-03  0.196E-01    1.49       1.0  T
   7    -94.0135321 -0.141511E-02  0.895E-02    1.50       1.0  T
   8    -94.0138307 -0.298551E-03  0.115E-02    1.50       1.1  T
   9    -94.0138278  0.289394E-05  0.122E-02    1.50       1.0  T
  10    -94.0138322 -0.442424E-05  0.570E-03    1.50       2.2  T
  11    -94.0138331 -0.859795E-06  0.247E-03    1.50       5.1  T
  12    -94.0138333 -0.179038E-06  0.187E-03    1.50       6.7  T
  13    -94.0138334 -0.138145E-06  0.125E-04    1.50     101.1  T
  14    -94.0138334  0.394044E-08  0.330E-04    1.50      38.2  T
     SCC iter.                  ...        0 min,  0.063 sec
     gradient                   ...        0 min,  0.011 sec
 * total energy  :   -92.8219168 Eh     change       -0.8489293E-03 Eh
   gradient norm :     0.0183876 Eh/α   predicted    -0.6702123E-03 ( -21.05%)
   displ. norm   :     0.5307907 α      lambda       -0.1013358E-02
   maximum displ.:     0.3436232 α      in ANC's #2, #7, #1, ...

........................................................................
.............................. CYCLE   19 ..............................
........................................................................
   1    -94.0133949 -0.940134E+02  0.137E-01    1.52       0.0  T
   2    -93.9900831  0.233118E-01  0.616E-01    1.38       1.0  T
   3    -94.0121058 -0.220227E-01  0.190E-01    1.53       1.0  T
   4    -94.0136454 -0.153962E-02  0.569E-02    1.52       1.0  T
   5    -94.0103312  0.331419E-02  0.263E-01    1.49       1.0  T
   6    -94.0136929 -0.336170E-02  0.381E-02    1.51       1.0  T
   7    -94.0132630  0.429869E-03  0.115E-01    1.52       1.0  T
   8    -94.0137486 -0.485563E-03  0.363E-02    1.51       1.0  T
   9    -94.0137906 -0.420149E-04  0.145E-02    1.51       1.0  T
  10    -94.0137945 -0.388425E-05  0.893E-03    1.51       1.4  T
  11    -94.0137972 -0.266890E-05  0.262E-03    1.51       4.8  T
  12    -94.0137971  0.569233E-07  0.343E-03    1.51       3.7  T
  13    -94.0137976 -0.450789E-06  0.634E-04    1.51      19.9  T
  14    -94.0137976 -0.116072E-07  0.385E-04    1.51      32.7  T
     SCC iter.                  ...        0 min,  0.058 sec
     gradient                   ...        0 min,  0.011 sec
 * total energy  :   -92.8227353 Eh     change       -0.8185081E-03 Eh
   gradient norm :     0.0184305 Eh/α   predicted    -0.6494325E-03 ( -20.66%)
   displ. norm   :     0.5562431 α      lambda       -0.1012558E-02
   maximum displ.:     0.3565236 α      in ANC's #2, #7, #1, ...

........................................................................
.............................. CYCLE   20 ..............................
........................................................................
   1    -94.0134792 -0.940135E+02  0.155E-01    1.53       0.0  T
   2    -93.9849449  0.285344E-01  0.673E-01    1.34       1.0  T
   3    -94.0123127 -0.273679E-01  0.181E-01    1.54       1.0  T
   4    -94.0128062 -0.493521E-03  0.205E-01    1.51       1.0  T
   5    -94.0108548  0.195143E-02  0.264E-01    1.50       1.0  T
   6    -94.0012338  0.962102E-02  0.574E-01    1.54       1.0  T
   7    -94.0139829 -0.127491E-01  0.670E-02    1.53       1.0  T
   8    -94.0141635 -0.180596E-03  0.177E-02    1.52       1.0  T
   9    -94.0141621  0.139035E-05  0.140E-02    1.52       1.0  T
  10    -94.0141595  0.262454E-05  0.149E-02    1.52       1.0  T
  11    -94.0141676 -0.811165E-05  0.439E-03    1.52       2.9  T
  12    -94.0141679 -0.267762E-06  0.371E-03    1.52       3.4  T
  13    -94.0141684 -0.521513E-06  0.670E-04    1.52      18.8  T
  14    -94.0141684  0.575932E-08  0.869E-04    1.52      14.5  T
     SCC iter.                  ...        0 min,  0.065 sec
     gradient                   ...        0 min,  0.011 sec
 * total energy  :   -92.8235416 Eh     change       -0.8063165E-03 Eh
   gradient norm :     0.0168121 Eh/α   predicted    -0.6629276E-03 ( -17.78%)
   displ. norm   :     0.5463598 α      lambda       -0.9656046E-03
   maximum displ.:     0.3501717 α      in ANC's #2, #7, #1, ...
 * RMSD in coord.:     1.0385573 α      energy gain  -0.2007031E+01 Eh

generating ANC from model Hessian ...
Using Lindh-Hessian (1995)
 Shifting diagonal of input Hessian by   1.030483106871410E-002
 Lowest  eigenvalues of input Hessian
    0.010000    0.000000    0.000000    0.000000    0.000000    0.000000
    0.000000    0.010446    0.010500    0.010680    0.010747    0.010865
    0.010986    0.011069    0.011270    0.011630    0.012053    0.012375
 Highest eigenvalues
    1.862904    1.912685    1.938313    2.037786    2.095514    2.116194
 

........................................................................
.............................. CYCLE   21 ..............................
........................................................................
   1    -94.0158494 -0.940158E+02  0.164E-01    1.53       0.0  T
   2    -93.9861805  0.296689E-01  0.688E-01    1.33       1.0  T
   3    -94.0119754 -0.257949E-01  0.284E-01    1.55       1.0  T
   4    -94.0140053 -0.202987E-02  0.294E-01    1.51       1.0  T
   5    -94.0107583  0.324700E-02  0.363E-01    1.49       1.0  T
   6    -94.0136636 -0.290527E-02  0.264E-01    1.54       1.0  T
   7    -94.0165651 -0.290150E-02  0.278E-02    1.53       1.0  T
   8    -94.0165861 -0.210340E-04  0.287E-02    1.52       1.0  T
   9    -94.0165975 -0.114486E-04  0.165E-02    1.52       1.0  T
  10    -94.0165969  0.680541E-06  0.151E-02    1.52       1.0  T
  11    -94.0166061 -0.919631E-05  0.423E-03    1.52       3.0  T
  12    -94.0166053  0.725419E-06  0.566E-03    1.52       2.2  T
  13    -94.0166067 -0.131518E-05  0.155E-03    1.52       8.1  T
  14    -94.0166067 -0.755601E-07  0.647E-04    1.52      19.5  T
  15    -94.0166067 -0.145905E-07  0.228E-04    1.52      55.2  T
     SCC iter.                  ...        0 min,  0.062 sec
     gradient                   ...        0 min,  0.011 sec
 * total energy  :   -92.8241642 Eh     change       -0.6226272E-03 Eh
   gradient norm :     0.0150581 Eh/α   predicted     0.0000000E+00 (-100.00%)
   displ. norm   :     0.1416200 α      lambda       -0.6415428E-03
   maximum displ.:     0.0656003 α      in ANC's #1, #3, #15, ...

........................................................................
.............................. CYCLE   22 ..............................
........................................................................
   1    -94.0168995 -0.940169E+02  0.919E-02    1.52       0.0  T
   2    -94.0154761  0.142339E-02  0.192E-01    1.51       1.0  T
   3    -93.9802184  0.352578E-01  0.907E-01    1.55       1.0  T
   4    -94.0168544 -0.366360E-01  0.529E-02    1.52       1.0  T
   5    -94.0148702  0.198422E-02  0.204E-01    1.50       1.0  T
   6    -94.0169251 -0.205492E-02  0.219E-02    1.52       1.0  T
   7    -94.0168358  0.892605E-04  0.481E-02    1.52       1.0  T
   8    -94.0169269 -0.910861E-04  0.113E-02    1.52       1.1  T
   9    -94.0169272 -0.302476E-06  0.739E-03    1.52       1.7  T
  10    -94.0169281 -0.825289E-06  0.468E-03    1.52       2.7  T
  11    -94.0169285 -0.401512E-06  0.340E-03    1.52       3.7  T
  12    -94.0169288 -0.305071E-06  0.166E-03    1.52       7.6  T
  13    -94.0169288 -0.805870E-07  0.253E-04    1.52      49.8  T
  14    -94.0169288  0.989829E-09  0.211E-04    1.52      59.6  T
     SCC iter.                  ...        0 min,  0.066 sec
     gradient                   ...        0 min,  0.011 sec
 * total energy  :   -92.8245832 Eh     change       -0.4189589E-03 Eh
   gradient norm :     0.0070167 Eh/α   predicted    -0.3272099E-03 ( -21.90%)
   displ. norm   :     0.2429161 α      lambda       -0.5347051E-03
   maximum displ.:     0.1164192 α      in ANC's #3, #15, #7, ...

........................................................................
.............................. CYCLE   23 ..............................
........................................................................
   1    -94.0164923 -0.940165E+02  0.141E-01    1.51       0.0  T
   2    -94.0138368  0.265545E-02  0.241E-01    1.49       1.0  T
   3    -93.9296600  0.841768E-01  0.142E+00    1.53       1.0  T
   4    -94.0145625 -0.849025E-01  0.191E-01    1.52       1.0  T
   5    -94.0134807  0.108182E-02  0.242E-01    1.48       1.0  T
   6    -94.0165419 -0.306116E-02  0.177E-02    1.51       1.0  T
   7    -94.0165362  0.573107E-05  0.163E-02    1.50       1.0  T
   8    -94.0165345  0.165065E-05  0.156E-02    1.51       1.0  T
   9    -94.0164993  0.352271E-04  0.306E-02    1.51       1.0  T
  10    -94.0165441 -0.447784E-04  0.385E-03    1.51       3.3  T
  11    -94.0165440  0.390366E-07  0.276E-03    1.51       4.6  T
  12    -94.0165439  0.881429E-07  0.265E-03    1.51       4.8  T
  13    -94.0165441 -0.171807E-06  0.917E-04    1.51      13.7  T
  14    -94.0165441 -0.125729E-07  0.821E-04    1.51      15.4  T
     SCC iter.                  ...        0 min,  0.058 sec
     gradient                   ...        0 min,  0.011 sec
 * total energy  :   -92.8248372 Eh     change       -0.2539972E-03 Eh
   gradient norm :     0.0066448 Eh/α   predicted    -0.2831322E-03 (  11.47%)
   displ. norm   :     0.2299204 α      lambda       -0.3622826E-03
   maximum displ.:     0.1182838 α      in ANC's #3, #1, #4, ...

........................................................................
.............................. CYCLE   24 ..............................
........................................................................
   1    -94.0166808 -0.940167E+02  0.938E-02    1.51       0.0  T
   2    -94.0029491  0.137317E-01  0.508E-01    1.45       1.0  T
   3    -94.0073367 -0.438766E-02  0.442E-01    1.54       1.0  T
   4    -94.0160185 -0.868179E-02  0.106E-01    1.52       1.0  T
   5    -94.0135403  0.247825E-02  0.264E-01    1.49       1.0  T
   6    -94.0168014 -0.326115E-02  0.107E-02    1.51       1.2  T
   7    -94.0167044  0.969600E-04  0.456E-02    1.52       1.0  T
   8    -94.0168014 -0.969998E-04  0.662E-03    1.51       1.9  T
   9    -94.0167969  0.455031E-05  0.115E-02    1.51       1.1  T
  10    -94.0167999 -0.303248E-05  0.980E-03    1.51       1.3  T
  11    -94.0168037 -0.378474E-05  0.507E-04    1.51      24.8  T
  12    -94.0168037  0.290799E-07  0.901E-04    1.51      14.0  T
  13    -94.0168037 -0.310723E-07  0.201E-04    1.51      62.6  T
     SCC iter.                  ...        0 min,  0.058 sec
     gradient                   ...        0 min,  0.012 sec
 * total energy  :   -92.8250801 Eh     change       -0.2428838E-03 Eh
   gradient norm :     0.0079210 Eh/α   predicted    -0.1907182E-03 ( -21.48%)
   displ. norm   :     0.3079899 α      lambda       -0.3793288E-03
   maximum displ.:     0.1636918 α      in ANC's #3, #1, #4, ...

........................................................................
.............................. CYCLE   25 ..............................
........................................................................
   1    -94.0169678 -0.940170E+02  0.776E-02    1.51       0.0  T
   2    -94.0024517  0.145161E-01  0.516E-01    1.44       1.0  T
   3    -94.0107010 -0.824927E-02  0.358E-01    1.53       1.0  T
   4    -94.0169850 -0.628398E-02  0.953E-02    1.51       1.0  T
   5    -94.0143340  0.265093E-02  0.254E-01    1.49       1.0  T
   6    -94.0168598 -0.252580E-02  0.743E-02    1.50       1.0  T
   7    -94.0170821 -0.222260E-03  0.738E-03    1.51       1.7  T
   8    -94.0170844 -0.231541E-05  0.683E-03    1.51       1.8  T
   9    -94.0170820  0.238232E-05  0.904E-03    1.51       1.4  T
  10    -94.0170838 -0.172392E-05  0.721E-03    1.51       1.7  T
  11    -94.0170856 -0.181049E-05  0.185E-03    1.51       6.8  T
  12    -94.0170857 -0.146412E-06  0.389E-04    1.51      32.4  T
  13    -94.0170857 -0.407042E-08  0.194E-04    1.51      64.9  T
     SCC iter.                  ...        0 min,  0.055 sec
     gradient                   ...        0 min,  0.011 sec
 * total energy  :   -92.8253907 Eh     change       -0.3105984E-03 Eh
   gradient norm :     0.0070951 Eh/α   predicted    -0.2076561E-03 ( -33.14%)
   displ. norm   :     0.4875477 α      lambda       -0.5060979E-03
   maximum displ.:     0.2637552 α      in ANC's #3, #1, #7, ...

........................................................................
.............................. CYCLE   26 ..............................
........................................................................
   1    -94.0171348 -0.940171E+02  0.104E-01    1.51       0.0  T
   2    -93.9970606  0.200742E-01  0.581E-01    1.40       1.0  T
   3    -94.0143718 -0.173111E-01  0.240E-01    1.53       1.0  T
   4    -94.0172998 -0.292807E-02  0.475E-02    1.51       1.0  T
   5    -94.0157218  0.157798E-02  0.197E-01    1.50       1.0  T
   6    -94.0169967 -0.127483E-02  0.926E-02    1.50       1.0  T
   7    -94.0168273  0.169352E-03  0.113E-01    1.52       1.0  T
   8    -94.0173699 -0.542618E-03  0.104E-02    1.51       1.2  T
   9    -94.0173593  0.106626E-04  0.193E-02    1.51       1.0  T
  10    -94.0173740 -0.147346E-04  0.127E-03    1.51       9.9  T
  11    -94.0173739  0.156491E-06  0.195E-03    1.51       6.5  T
  12    -94.0173740 -0.168914E-06  0.425E-04    1.51      29.7  T
  13    -94.0173740  0.998699E-08  0.564E-04    1.51      22.3  T
     SCC iter.                  ...        0 min,  0.053 sec
     gradient                   ...        0 min,  0.011 sec
 * total energy  :   -92.8257843 Eh     change       -0.3935833E-03 Eh
   gradient norm :     0.0063666 Eh/α   predicted    -0.3132011E-03 ( -20.42%)
   displ. norm   :     0.4831698 α      lambda       -0.3896541E-03
   maximum displ.:     0.2721004 α      in ANC's #3, #7, #4, ...

........................................................................
.............................. CYCLE   27 ..............................
........................................................................
   1    -94.0162071 -0.940162E+02  0.109E-01    1.51       0.0  T
   2    -93.9949482  0.212589E-01  0.595E-01    1.39       1.0  T
   3    -94.0117577 -0.168095E-01  0.300E-01    1.53       1.0  T
   4    -94.0164334 -0.467571E-02  0.647E-02    1.51       1.0  T
   5    -94.0143384  0.209499E-02  0.228E-01    1.49       1.0  T
   6    -94.0161209 -0.178249E-02  0.944E-02    1.50       1.0  T
   7    -94.0155850  0.535916E-03  0.143E-01    1.51       1.0  T
   8    -94.0164680 -0.882969E-03  0.175E-02    1.51       1.0  T
   9    -94.0164654  0.255855E-05  0.177E-02    1.51       1.0  T
  10    -94.0164761 -0.106681E-04  0.716E-03    1.51       1.8  T
  11    -94.0164781 -0.205104E-05  0.146E-03    1.51       8.6  T
  12    -94.0164782 -0.939414E-07  0.433E-04    1.51      29.1  T
  13    -94.0164782 -0.120403E-08  0.363E-04    1.51      34.7  T
     SCC iter.                  ...        0 min,  0.060 sec
     gradient                   ...        0 min,  0.011 sec
 * total energy  :   -92.8260817 Eh     change       -0.2974053E-03 Eh
   gradient norm :     0.0060237 Eh/α   predicted    -0.2403131E-03 ( -19.20%)
   displ. norm   :     0.4357212 α      lambda       -0.3626371E-03
   maximum displ.:     0.2569912 α      in ANC's #3, #7, #4, ...

........................................................................
.............................. CYCLE   28 ..............................
........................................................................
   1    -94.0178855 -0.940179E+02  0.745E-02    1.53       0.0  T
   2    -94.0010612  0.168243E-01  0.534E-01    1.43       1.0  T
   3    -94.0177078 -0.166467E-01  0.900E-02    1.52       1.0  T
   4    -94.0176029  0.104950E-03  0.843E-02    1.51       1.0  T
   5    -94.0148994  0.270352E-02  0.272E-01    1.53       1.0  T
   6    -94.0148535  0.458211E-04  0.277E-01    1.53       1.0  T
   7    -94.0178591 -0.300560E-02  0.591E-02    1.52       1.0  T
   8    -94.0179431 -0.839630E-04  0.510E-02    1.52       1.0  T
   9    -94.0180103 -0.671822E-04  0.307E-02    1.52       1.0  T
  10    -94.0180405 -0.301942E-04  0.138E-02    1.52       1.0  T
  11    -94.0180460 -0.551104E-05  0.465E-03    1.52       2.7  T
  12    -94.0180465 -0.485938E-06  0.204E-03    1.52       6.2  T
  13    -94.0180467 -0.186292E-06  0.208E-04    1.52      60.6  T
  14    -94.0180466  0.273626E-07  0.807E-04    1.52      15.6  T
     SCC iter.                  ...        0 min,  0.058 sec
     gradient                   ...        0 min,  0.012 sec
 * total energy  :   -92.8263518 Eh     change       -0.2701232E-03 Eh
   gradient norm :     0.0057876 Eh/α   predicted    -0.2157455E-03 ( -20.13%)
   displ. norm   :     0.4468788 α      lambda       -0.3977660E-03
   maximum displ.:     0.2732488 α      in ANC's #3, #7, #4, ...

........................................................................
.............................. CYCLE   29 ..............................
........................................................................
   1    -94.0182896 -0.940183E+02  0.113E-01    1.53       0.0  T
   2    -93.9941580  0.241316E-01  0.624E-01    1.39       1.0  T
   3    -94.0171224 -0.229644E-01  0.166E-01    1.54       1.0  T
   4    -94.0184360 -0.131362E-02  0.103E-01    1.53       1.0  T
   5    -94.0167368  0.169929E-02  0.203E-01    1.51       1.0  T
   6    -94.0176980 -0.961204E-03  0.167E-01    1.54       1.0  T
   7    -94.0185392 -0.841277E-03  0.548E-02    1.53       1.0  T
   8    -94.0186743 -0.135086E-03  0.740E-03    1.53       1.7  T
   9    -94.0186756 -0.125343E-05  0.405E-03    1.53       3.1  T
  10    -94.0186758 -0.181701E-06  0.192E-03    1.53       6.6  T
  11    -94.0186753  0.419007E-06  0.364E-03    1.53       3.5  T
  12    -94.0186758 -0.443172E-06  0.188E-03    1.53       6.7  T
  13    -94.0186759 -0.131987E-06  0.292E-04    1.53      43.2  T
  14    -94.0186759  0.173703E-07  0.719E-04    1.53      17.5  T
     SCC iter.                  ...        0 min,  0.065 sec
     gradient                   ...        0 min,  0.011 sec
 * total energy  :   -92.8266520 Eh     change       -0.3002142E-03 Eh
   gradient norm :     0.0059885 Eh/α   predicted    -0.2386022E-03 ( -20.52%)
   displ. norm   :     0.4553611 α      lambda       -0.3556526E-03
   maximum displ.:     0.2824611 α      in ANC's #3, #7, #4, ...

........................................................................
.............................. CYCLE   30 ..............................
........................................................................
   1    -94.0185552 -0.940186E+02  0.116E-01    1.55       0.0  T
   2    -93.9923457  0.262095E-01  0.643E-01    1.39       1.0  T
   3    -94.0189399 -0.265942E-01  0.506E-02    1.55       1.0  T
   4    -94.0172039  0.173598E-02  0.194E-01    1.53       1.0  T
   5    -94.0172566 -0.526693E-04  0.182E-01    1.53       1.0  T
   6    -94.0094330  0.782357E-02  0.492E-01    1.56       1.0  T
   7    -94.0171475 -0.771447E-02  0.217E-01    1.55       1.0  T
   8    -94.0190410 -0.189355E-02  0.184E-02    1.54       1.0  T
   9    -94.0190440 -0.297891E-05  0.108E-02    1.54       1.2  T
  10    -94.0190497 -0.566362E-05  0.538E-03    1.54       2.3  T
  11    -94.0190475  0.222376E-05  0.922E-03    1.54       1.4  T
  12    -94.0190491 -0.162621E-05  0.610E-03    1.54       2.1  T
  13    -94.0190505 -0.146007E-05  0.301E-04    1.54      41.9  T
  14    -94.0190505 -0.853461E-09  0.125E-04    1.54     100.6  T
  15    -94.0190505  0.989931E-08  0.526E-04    1.54      24.0  T
     SCC iter.                  ...        0 min,  0.063 sec
     gradient                   ...        0 min,  0.011 sec
 * total energy  :   -92.8269523 Eh     change       -0.3003308E-03 Eh
   gradient norm :     0.0059785 Eh/α   predicted    -0.2147001E-03 ( -28.51%)
   displ. norm   :     0.5076954 α      lambda       -0.3971071E-03
   maximum displ.:     0.3151069 α      in ANC's #3, #7, #4, ...

........................................................................
.............................. CYCLE   31 ..............................
........................................................................
   1    -94.0187811 -0.940188E+02  0.142E-01    1.56       0.0  T
   2    -93.9887708  0.300104E-01  0.677E-01    1.37       1.0  T
   3    -94.0192638 -0.304930E-01  0.702E-02    1.56       1.0  T
   4    -94.0167835  0.248024E-02  0.239E-01    1.53       1.0  T
   5    -94.0168970 -0.113445E-03  0.228E-01    1.54       1.0  T
   6    -94.0025913  0.143057E-01  0.654E-01    1.58       1.0  T
   7    -94.0157808 -0.131895E-01  0.304E-01    1.57       1.0  T
   8    -94.0194830 -0.370225E-02  0.395E-02    1.55       1.0  T
   9    -94.0195290 -0.459770E-04  0.557E-03    1.56       2.3  T
  10    -94.0195310 -0.202869E-05  0.242E-03    1.55       5.2  T
  11    -94.0195252  0.579727E-05  0.129E-02    1.55       1.0  T
  12    -94.0195279 -0.260807E-05  0.934E-03    1.55       1.3  T
  13    -94.0195311 -0.325256E-05  0.151E-03    1.55       8.3  T
  14    -94.0195312 -0.491646E-07  0.800E-04    1.55      15.7  T
  15    -94.0195312 -0.245336E-08  0.762E-04    1.55      16.5  T
     SCC iter.                  ...        0 min,  0.065 sec
     gradient                   ...        0 min,  0.012 sec
 * total energy  :   -92.8272853 Eh     change       -0.3329919E-03 Eh
   gradient norm :     0.0055346 Eh/α   predicted    -0.2497328E-03 ( -25.00%)
   displ. norm   :     0.5531038 α      lambda       -0.3735438E-03
   maximum displ.:     0.3483388 α      in ANC's #3, #7, #4, ...

........................................................................
.............................. CYCLE   32 ..............................
........................................................................
   1    -94.0174938 -0.940175E+02  0.158E-01    1.57       0.0  T
   2    -93.9854714  0.320224E-01  0.697E-01    1.35       1.0  T
   3    -94.0177082 -0.322368E-01  0.104E-01    1.57       1.0  T
   4    -94.0144576  0.325053E-02  0.292E-01    1.54       1.0  T
   5    -94.0146121 -0.154406E-03  0.280E-01    1.54       1.0  T
   6    -94.0014558  0.131562E-01  0.654E-01    1.58       1.0  T
   7    -94.0167369 -0.152811E-01  0.200E-01    1.57       1.0  T
   8    -94.0182379 -0.150100E-02  0.732E-02    1.56       1.0  T
   9    -94.0184160 -0.178069E-03  0.153E-02    1.56       1.0  T
  10    -94.0184190 -0.304351E-05  0.564E-03    1.56       2.2  T
  11    -94.0184122  0.684227E-05  0.149E-02    1.56       1.0  T
  12    -94.0184170 -0.482117E-05  0.908E-03    1.56       1.4  T
  13    -94.0184201 -0.313053E-05  0.128E-03    1.56       9.8  T
  14    -94.0184202 -0.426086E-07  0.532E-04    1.56      23.7  T
  15    -94.0184201  0.174679E-07  0.871E-04    1.56      14.5  T
     SCC iter.                  ...        0 min,  0.069 sec
     gradient                   ...        0 min,  0.011 sec
 * total energy  :   -92.8275983 Eh     change       -0.3130255E-03 Eh
   gradient norm :     0.0054014 Eh/α   predicted    -0.2439160E-03 ( -22.08%)
   displ. norm   :     0.5274017 α      lambda       -0.3305189E-03
   maximum displ.:     0.3384504 α      in ANC's #3, #7, #4, ...

........................................................................
.............................. CYCLE   33 ..............................
........................................................................
   1    -94.0178155 -0.940178E+02  0.140E-01    1.57       0.0  T
   2    -93.9891986  0.286168E-01  0.664E-01    1.39       1.0  T
   3    -94.0175835 -0.283848E-01  0.122E-01    1.58       1.0  T
   4    -94.0163422  0.124128E-02  0.228E-01    1.55       1.0  T
   5    -94.0158365  0.505657E-03  0.234E-01    1.55       1.0  T
   6    -94.0056526  0.101839E-01  0.569E-01    1.59       1.0  T
   7    -94.0184959 -0.128433E-01  0.101E-02    1.57       1.2  T
   8    -94.0184318  0.640938E-04  0.456E-02    1.56       1.0  T
   9    -94.0184863 -0.544359E-04  0.172E-02    1.56       1.0  T
  10    -94.0184922 -0.587426E-05  0.104E-02    1.56       1.2  T
  11    -94.0184928 -0.655673E-06  0.958E-03    1.56       1.3  T
  12    -94.0184960 -0.318673E-05  0.370E-03    1.56       3.4  T
  13    -94.0184962 -0.230856E-06  0.243E-03    1.56       5.2  T
  14    -94.0184964 -0.195391E-06  0.866E-04    1.56      14.6  T
  15    -94.0184964 -0.194871E-07  0.539E-04    1.56      23.4  T
     SCC iter.                  ...        0 min,  0.070 sec
     gradient                   ...        0 min,  0.012 sec
 * total energy  :   -92.8278783 Eh     change       -0.2799844E-03 Eh
   gradient norm :     0.0053775 Eh/α   predicted    -0.2112276E-03 ( -24.56%)
   displ. norm   :     0.5282558 α      lambda       -0.3150977E-03
   maximum displ.:     0.3472372 α      in ANC's #3, #7, #4, ...

........................................................................
.............................. CYCLE   34 ..............................
........................................................................
   1    -94.0176864 -0.940177E+02  0.125E-01    1.57       0.0  T
   2    -93.9931045  0.245819E-01  0.625E-01    1.42       1.0  T
   3    -94.0157014 -0.225969E-01  0.211E-01    1.58       1.0  T
   4    -94.0179794 -0.227807E-02  0.109E-01    1.56       1.0  T
   5    -94.0142503  0.372917E-02  0.286E-01    1.54       1.0  T
   6    -94.0175776 -0.332736E-02  0.125E-01    1.57       1.0  T
   7    -94.0181385 -0.560852E-03  0.126E-02    1.56       1.0  T
   8    -94.0181275  0.109940E-04  0.213E-02    1.56       1.0  T
   9    -94.0181407 -0.132072E-04  0.792E-03    1.56       1.6  T
  10    -94.0181426 -0.193040E-05  0.236E-03    1.56       5.3  T
  11    -94.0181410  0.159354E-05  0.667E-03    1.56       1.9  T
  12    -94.0181429 -0.184971E-05  0.113E-03    1.56      11.2  T
  13    -94.0181428  0.744214E-07  0.173E-03    1.56       7.3  T
  14    -94.0181429 -0.120926E-06  0.267E-04    1.56      47.2  T
  15    -94.0181429  0.776595E-09  0.289E-04    1.56      43.6  T
     SCC iter.                  ...        0 min,  0.068 sec
     gradient                   ...        0 min,  0.012 sec
 * total energy  :   -92.8281488 Eh     change       -0.2705231E-03 Eh
   gradient norm :     0.0051347 Eh/α   predicted    -0.2015177E-03 ( -25.51%)
   displ. norm   :     0.5249199 α      lambda       -0.3216777E-03
   maximum displ.:     0.3518650 α      in ANC's #3, #4, #7, ...

........................................................................
.............................. CYCLE   35 ..............................
........................................................................
   1    -94.0191965 -0.940192E+02  0.105E-01    1.56       0.0  T
   2    -94.0007664  0.184301E-01  0.556E-01    1.46       1.0  T
   3    -94.0165814 -0.158150E-01  0.240E-01    1.57       1.0  T
   4    -94.0188583 -0.227690E-02  0.882E-02    1.57       1.0  T
   5    -94.0158259  0.303242E-02  0.280E-01    1.54       1.0  T
   6    -94.0171586 -0.133269E-02  0.218E-01    1.54       1.0  T
   7    -94.0192026 -0.204397E-02  0.722E-02    1.56       1.0  T
   8    -94.0194108 -0.208244E-03  0.211E-02    1.56       1.0  T
   9    -94.0194209 -0.100576E-04  0.132E-02    1.56       1.0  T
  10    -94.0194274 -0.654266E-05  0.194E-03    1.56       6.5  T
  11    -94.0194261  0.127076E-05  0.599E-03    1.56       2.1  T
  12    -94.0194276 -0.142792E-05  0.458E-04    1.56      27.5  T
  13    -94.0194274  0.130103E-06  0.169E-03    1.56       7.4  T
  14    -94.0194276 -0.129721E-06  0.242E-04    1.56      52.1  T
  15    -94.0194276 -0.285466E-08  0.766E-05    1.56     164.5  T
     SCC iter.                  ...        0 min,  0.066 sec
     gradient                   ...        0 min,  0.012 sec
 * total energy  :   -92.8284167 Eh     change       -0.2678791E-03 Eh
   gradient norm :     0.0046537 Eh/α   predicted    -0.2051586E-03 ( -23.41%)
   displ. norm   :     0.5620186 α      lambda       -0.2997776E-03
   maximum displ.:     0.3795822 α      in ANC's #3, #4, #7, ...

........................................................................
.............................. CYCLE   36 ..............................
........................................................................
   1    -94.0179086 -0.940179E+02  0.999E-02    1.56       0.0  T
   2    -94.0035172  0.143914E-01  0.502E-01    1.48       1.0  T
   3    -94.0139951 -0.104780E-01  0.291E-01    1.57       1.0  T
   4    -94.0168755 -0.288032E-02  0.133E-01    1.57       1.0  T
   5    -94.0141985  0.267701E-02  0.288E-01    1.53       1.0  T
   6    -94.0169317 -0.273328E-02  0.150E-01    1.55       1.0  T
   7    -94.0180245 -0.109274E-02  0.247E-02    1.55       1.0  T
   8    -94.0180500 -0.255657E-04  0.103E-02    1.55       1.2  T
   9    -94.0180492  0.810063E-06  0.947E-03    1.55       1.3  T
  10    -94.0180523 -0.304242E-05  0.492E-03    1.55       2.6  T
  11    -94.0180519  0.381895E-06  0.527E-03    1.55       2.4  T
  12    -94.0180530 -0.108474E-05  0.179E-03    1.55       7.1  T
  13    -94.0180530 -0.449237E-07  0.110E-03    1.55      11.5  T
  14    -94.0180531 -0.502293E-07  0.212E-04    1.55      59.5  T
  15    -94.0180531 -0.237662E-08  0.265E-05    1.55     476.0  T
     SCC iter.                  ...        0 min,  0.068 sec
     gradient                   ...        0 min,  0.012 sec
 * total energy  :   -92.8286567 Eh     change       -0.2399307E-03 Eh
   gradient norm :     0.0054016 Eh/α   predicted    -0.1972397E-03 ( -17.79%)
   displ. norm   :     0.5226580 α      lambda       -0.2794095E-03
   maximum displ.:     0.3570808 α      in ANC's #3, #4, #7, ...

........................................................................
.............................. CYCLE   37 ..............................
........................................................................
   1    -94.0201072 -0.940201E+02  0.820E-02    1.55       0.0  T
   2    -94.0172640  0.284315E-02  0.236E-01    1.53       1.0  T
   3    -94.0138370  0.342700E-02  0.372E-01    1.57       1.0  T
   4    -94.0184622 -0.462518E-02  0.174E-01    1.56       1.0  T
   5    -94.0184738 -0.115836E-04  0.184E-01    1.54       1.0  T
   6    -94.0200943 -0.162048E-02  0.343E-02    1.55       1.0  T
   7    -94.0201213 -0.270110E-04  0.177E-02    1.55       1.0  T
   8    -94.0201329 -0.116841E-04  0.309E-03    1.55       4.1  T
   9    -94.0201302  0.278731E-05  0.819E-03    1.55       1.5  T
  10    -94.0201331 -0.294521E-05  0.232E-03    1.55       5.4  T
  11    -94.0201332 -0.100666E-06  0.539E-04    1.55      23.4  T
  12    -94.0201332  0.256538E-07  0.800E-04    1.55      15.7  T
     SCC iter.                  ...        0 min,  0.054 sec
     gradient                   ...        0 min,  0.012 sec
 * total energy  :   -92.8288430 Eh     change       -0.1863591E-03 Eh
   gradient norm :     0.0053495 Eh/α   predicted    -0.1778707E-03 (  -4.55%)
   displ. norm   :     0.4131856 α      lambda       -0.1591683E-03
   maximum displ.:     0.2886071 α      in ANC's #3, #4, #7, ...

........................................................................
.............................. CYCLE   38 ..............................
........................................................................
   1    -94.0182175 -0.940182E+02  0.600E-02    1.55       0.0  T
   2    -94.0156277  0.258984E-02  0.225E-01    1.53       1.0  T
   3    -94.0172028 -0.157516E-02  0.152E-01    1.56       1.0  T
   4    -94.0175278 -0.324995E-03  0.109E-01    1.56       1.0  T
   5    -94.0177824 -0.254542E-03  0.968E-02    1.54       1.0  T
   6    -94.0181413 -0.358898E-03  0.448E-02    1.55       1.0  T
   7    -94.0182309 -0.896105E-04  0.727E-03    1.55       1.7  T
   8    -94.0182312 -0.328084E-06  0.565E-03    1.55       2.2  T
   9    -94.0182327 -0.148568E-05  0.142E-03    1.55       8.9  T
  10    -94.0182326  0.113083E-06  0.189E-03    1.55       6.7  T
  11    -94.0182327 -0.155305E-06  0.730E-04    1.55      17.3  T
  12    -94.0182327 -0.623476E-08  0.452E-04    1.55      27.9  T
     SCC iter.                  ...        0 min,  0.054 sec
     gradient                   ...        0 min,  0.012 sec
 * total energy  :   -92.8289474 Eh     change       -0.1044276E-03 Eh
   gradient norm :     0.0048655 Eh/α   predicted    -0.9317284E-04 ( -10.78%)
   displ. norm   :     0.2341466 α      lambda       -0.1157959E-03
   maximum displ.:     0.1669657 α      in ANC's #3, #4, #2, ...

........................................................................
.............................. CYCLE   39 ..............................
........................................................................
   1    -94.0202685 -0.940203E+02  0.374E-02    1.55       0.0  T
   2    -94.0160949  0.417363E-02  0.302E-01    1.57       1.0  T
   3    -94.0201176 -0.402274E-02  0.589E-02    1.55       1.0  T
   4    -94.0199981  0.119501E-03  0.712E-02    1.55       1.0  T
   5    -94.0202072 -0.209036E-03  0.379E-02    1.55       1.0  T
   6    -94.0202785 -0.712872E-04  0.710E-03    1.55       1.8  T
   7    -94.0202791 -0.648996E-06  0.694E-03    1.55       1.8  T
   8    -94.0202813 -0.223972E-05  0.113E-03    1.55      11.1  T
   9    -94.0202814 -0.295216E-07  0.446E-04    1.55      28.2  T
  10    -94.0202813  0.486791E-07  0.109E-03    1.55      11.5  T
  11    -94.0202814 -0.503264E-07  0.236E-04    1.55      53.4  T
     SCC iter.                  ...        0 min,  0.050 sec
     gradient                   ...        0 min,  0.012 sec
 * total energy  :   -92.8290317 Eh     change       -0.8428284E-04 Eh
   gradient norm :     0.0034132 Eh/α   predicted    -0.6107816E-04 ( -27.53%)
   displ. norm   :     0.2436390 α      lambda       -0.1016544E-03
   maximum displ.:     0.1729891 α      in ANC's #3, #4, #2, ...

........................................................................
.............................. CYCLE   40 ..............................
........................................................................
   1    -94.0206268 -0.940206E+02  0.370E-02    1.55       0.0  T
   2    -94.0201379  0.488937E-03  0.106E-01    1.56       1.0  T
   3    -94.0196739  0.464019E-03  0.137E-01    1.54       1.0  T
   4    -94.0203465 -0.672652E-03  0.720E-02    1.55       1.0  T
   5    -94.0206143 -0.267798E-03  0.207E-02    1.55       1.0  T
[...]
 iterations                     ...        0 min,  0.012 sec ( 40.109%)
 molecular gradient             ...        0 min,  0.010 sec ( 34.898%)
 printout                       ...        0 min,  0.001 sec (  2.004%)

         :::::::::::::::::::::::::::::::::::::::::::::::::::::
         ::                     SUMMARY                     ::
         :::::::::::::::::::::::::::::::::::::::::::::::::::::
         :: total energy             -92.832827896087 Eh    ::
         :: total w/o Gsasa/hb       -92.797982364075 Eh    ::
         :: gradient norm              0.000119234713 Eh/a0 ::
         :: HOMO-LUMO gap              1.533789586347 eV    ::
         ::.................................................::
         :: SCC energy               -94.025053103121 Eh    ::
         :: -> isotropic ES            0.129748273549 Eh    ::
         :: -> anisotropic ES          0.009615915522 Eh    ::
         :: -> anisotropic XC          0.020750905516 Eh    ::
         :: -> dispersion             -0.091811676344 Eh    ::
         :: -> Gsolv                  -0.056559134292 Eh    ::
         ::    -> Gelec               -0.021713602280 Eh    ::
         ::    -> Gsasa               -0.038994229373 Eh    ::
         ::    -> Ghb                  0.000000000000 Eh    ::
         ::    -> Gshift               0.004148697361 Eh    ::
         :: repulsion energy           1.188839197963 Eh    ::
         :: add. restraining           0.000000000000 Eh    ::
         :: total charge              -0.000000000000 e     ::
         :::::::::::::::::::::::::::::::::::::::::::::::::::::

           -------------------------------------------------
          |                Property Printout                |
           -------------------------------------------------

    * Orbital Energies and Occupations

         #    Occupation            Energy/Eh            Energy/eV
      -------------------------------------------------------------
         1        2.0000           -0.7380359             -20.0830
       ...           ...                  ...                  ...
        74        2.0000           -0.4078244             -11.0975
        75        2.0000           -0.3972197             -10.8089
        76        2.0000           -0.3937306             -10.7140
        77        2.0000           -0.3885247             -10.5723
        78        2.0000           -0.3873507             -10.5403
        79        2.0000           -0.3750854             -10.2066
        80        2.0000           -0.3367526              -9.1635
        81        2.0000           -0.3310401              -9.0081
        82        2.0000           -0.3226832              -8.7807
        83        2.0000           -0.3189597              -8.6793
        84        1.9979           -0.3144821              -8.5575
        85        1.8729           -0.3104443              -8.4476
        86        1.1292           -0.3068013              -8.3485 (HOMO)
        87                         -0.2504356              -6.8147 (LUMO)
        88                         -0.2440690              -6.6415
        89                         -0.2316707              -6.3041
        90                         -0.2212543              -6.0206
        91                         -0.2101565              -5.7186
        92                         -0.1819899              -4.9522
        93                         -0.1581016              -4.3022
        94                         -0.1308523              -3.5607
        95                         -0.1213914              -3.3032
        96                         -0.1069557              -2.9104
        97                         -0.0886194              -2.4115
       ...                                ...                  ...
       171                          2.5349278              68.9789
      -------------------------------------------------------------
                  HL-Gap            0.0563657 Eh            1.5338 eV
             Fermi-level           -0.2936162 Eh           -7.9897 eV

     #   Z          covCN         q      C6AA      α(0)
     1   6 C        3.642     0.033    20.373     6.490
     2   8 O        1.748    -0.224    17.715     5.683
     3   6 C        2.912     0.136    25.031     8.204
     4   6 C        2.917    -0.081    30.026     8.986
     5   6 C        2.926    -0.033    28.817     8.803
     6   6 C        2.913    -0.069    29.721     8.940
     7   6 C        3.112     0.150    24.603     8.126
     8   6 C        2.942    -0.063    29.557     8.917
     9  15 P        4.691     0.068   157.230    22.525
    10   6 C        3.848     0.023    20.151     6.385
    11   6 C        3.876    -0.114    22.635     6.765
    12   6 C        3.806    -0.109    22.571     6.763
    13   6 C        3.863    -0.122    22.788     6.789
    14  77 Ir       2.603     0.005   303.165    31.967
    15  15 P        4.547     0.046   158.175    22.592
    16   6 C        3.849     0.035    19.959     6.354
    17   6 C        3.879    -0.123    22.807     6.790
    18   6 C        3.851    -0.117    22.708     6.778
    19   6 C        3.838    -0.118    22.717     6.781
    20   6 C        2.921    -0.012    28.314     8.726
    21   6 C        2.946     0.121    25.340     8.256
    22   8 O        2.295    -0.177    16.951     5.560
    23   6 C        3.637     0.031    20.417     6.500
    24   6 C        2.916    -0.075    29.863     8.961
    25   6 C        2.924    -0.037    28.915     8.818
    26   6 C        2.916    -0.034    28.850     8.808
    27   6 C        2.069    -0.111    34.012     9.421
    28   8 O        0.866    -0.628    26.821     6.944
    29   6 C        3.659     0.181    17.962     6.082
    30   6 C        3.744     0.070    19.472     6.295
    31   8 O        1.744    -0.267    18.424     5.796
    32   1 H        0.924     0.053     2.285     2.364
    33   1 H        0.924     0.050     2.319     2.382
    34   1 H        0.925     0.073     2.049     2.238
    35   1 H        0.926     0.049     2.326     2.385
    36   1 H        0.926     0.050     2.322     2.383
    37   1 H        0.926     0.049     2.331     2.387
    38   1 H        0.925     0.056     2.250     2.346
    39   1 H        0.924     0.058     2.222     2.331
    40   1 H        0.925     0.048     2.348     2.396
    41   1 H        0.925     0.054     2.271     2.357
    42   1 H        0.925     0.043     2.410     2.427
    43   1 H        0.925     0.048     2.342     2.393
    44   1 H        0.925     0.051     2.312     2.378
    45   1 H        0.925     0.059     2.207     2.323
    46   1 H        0.925     0.059     2.209     2.324
    47   1 H        0.925     0.057     2.234     2.337
    48   1 H        0.925     0.054     2.275     2.359
    49   1 H        0.925     0.058     2.225     2.333
    50   1 H        0.924     0.058     2.219     2.329
    51   1 H        0.925     0.042     2.418     2.432
    52   1 H        0.925     0.054     2.276     2.359
    53   1 H        0.925     0.045     2.390     2.417
    54   1 H        0.925     0.071     2.073     2.252
    55   1 H        0.924     0.051     2.313     2.378
    56   1 H        0.924     0.080     1.982     2.201
    57   1 H        0.924     0.060     2.199     2.319
    58   1 H        0.924     0.055     2.255     2.348
    59   1 H        0.926     0.040     2.443     2.444
    60   1 H        0.925     0.034     2.530     2.487
    61   1 H        0.926     0.029     2.598     2.521
    62   1 H        0.919    -0.032     3.679     3.000
    63   1 H        0.924     0.059     2.212     2.326

 Mol. C6AA /au·bohr⁶  :      51806.038705
 Mol. C8AA /au·bohr⁸  :    1577206.553889
 Mol. α(0) /au        :        361.061630


Wiberg/Mayer (AO) data.
largest (>0.10) Wiberg bond orders for each atom

 ---------------------------------------------------------------------------
     #   Z sym  total        # sym  WBO       # sym  WBO       # sym  WBO
 ---------------------------------------------------------------------------
     1   6 C    3.932 --    34 H    0.978    32 H    0.978    33 H    0.978
                             2 O    0.966
     2   8 O    2.344 --     3 C    1.038     1 C    0.966    14 Ir   0.144
     3   6 C    3.935 --     4 C    1.383     8 C    1.331     2 O    1.038
     4   6 C    3.978 --     5 C    1.416     3 C    1.383    35 H    0.965
     5   6 C    3.972 --     6 C    1.453     4 C    1.416    36 H    0.970
     6   6 C    3.983 --     5 C    1.453     7 C    1.352    37 H    0.967
     7   6 C    3.936 --     6 C    1.352     8 C    1.310    31 O    1.083
     8   6 C    3.972 --     3 C    1.331     7 C    1.310     9 P    1.000
     9  15 P    4.349 --    14 Ir   1.050     8 C    1.000    30 C    0.943
                            10 C    0.887
    10   6 C    3.982 --    12 C    0.992    13 C    0.990    11 C    0.990
                             9 P    0.887
    11   6 C    3.993 --    10 C    0.990    38 H    0.979    40 H    0.978
                            39 H    0.969
    12   6 C    3.994 --    10 C    0.992    42 H    0.978    43 H    0.977
                            41 H    0.977
    13   6 C    3.993 --    10 C    0.990    46 H    0.979    44 H    0.975
                            45 H    0.972
    14  77 Ir   3.281 --    15 P    1.167     9 P    1.050    22 O    0.343
                             2 O    0.144
    15  15 P    4.283 --    14 Ir   1.167    20 C    0.964    16 C    0.901
                            29 C    0.679    28 O    0.142
    16   6 C    3.981 --    19 C    0.989    18 C    0.989    17 C    0.988
                            15 P    0.901
    17   6 C    3.991 --    16 C    0.988    48 H    0.980    47 H    0.974
                            49 H    0.968
    18   6 C    3.994 --    16 C    0.989    51 H    0.980    52 H    0.979
                            50 H    0.967
    19   6 C    3.980 --    16 C    0.989    53 H    0.977    54 H    0.969
                            55 H    0.960
    20   6 C    3.954 --    27 C    1.426    21 C    1.282    15 P    0.964
    21   6 C    3.879 --    24 C    1.407    20 C    1.282    22 O    0.989
    22   8 O    2.461 --    21 C    0.989    23 C    0.955    14 Ir   0.343
    23   6 C    3.923 --    57 H    0.976    58 H    0.976    56 H    0.969
                            22 O    0.955
    24   6 C    3.978 --    25 C    1.416    21 C    1.407    59 H    0.960
    25   6 C    3.936 --    26 C    1.424    24 C    1.416    60 H    0.965
    26   6 C    3.954 --    25 C    1.424    27 C    1.415    61 H    0.964
    27   6 C    3.162 --    20 C    1.426    26 C    1.415
    28   8 O    1.719 --    29 C    1.341    15 P    0.142
    29   6 C    3.962 --    28 O    1.341    62 H    0.904    30 C    0.880
                            15 P    0.679
    30   6 C    3.911 --    31 O    0.947    63 H    0.944     9 P    0.943
                            29 C    0.880
    31   8 O    2.261 --     7 C    1.083    30 C    0.947
    32   1 H    0.997 --     1 C    0.978
    33   1 H    0.997 --     1 C    0.978
    34   1 H    0.994 --     1 C    0.978
    35   1 H    0.997 --     4 C    0.965
    36   1 H    0.997 --     5 C    0.970
    37   1 H    0.997 --     6 C    0.967
    38   1 H    0.996 --    11 C    0.979
    39   1 H    0.996 --    11 C    0.969
    40   1 H    0.998 --    11 C    0.978
    41   1 H    0.993 --    12 C    0.977
    42   1 H    0.998 --    12 C    0.978
    43   1 H    0.998 --    12 C    0.977
    44   1 H    0.997 --    13 C    0.975
    45   1 H    0.996 --    13 C    0.972
    46   1 H    0.995 --    13 C    0.979
    47   1 H    0.997 --    17 C    0.974
    48   1 H    0.996 --    17 C    0.980
    49   1 H    0.997 --    17 C    0.968
    50   1 H    0.997 --    18 C    0.967
    51   1 H    0.998 --    18 C    0.980
    52   1 H    0.994 --    18 C    0.979
    53   1 H    0.993 --    19 C    0.977
    54   1 H    0.995 --    19 C    0.969
    55   1 H    0.997 --    19 C    0.960
    56   1 H    0.993 --    23 C    0.969
    57   1 H    0.996 --    23 C    0.976
    58   1 H    0.996 --    23 C    0.976
    59   1 H    0.992 --    24 C    0.960
    60   1 H    0.988 --    25 C    0.965
    61   1 H    0.990 --    26 C    0.964
    62   1 H    0.998 --    29 C    0.904
    63   1 H    0.995 --    30 C    0.944
 ---------------------------------------------------------------------------

Topologies differ in total number of bonds
Writing topology from bond orders to xtbtopo.mol

molecular dipole:
                 x           y           z       tot (Debye)
 q only:        2.421       1.197       4.849
   full:        3.230       2.477       5.157      16.699
molecular quadrupole (traceless):
                xx          xy          yy          xz          yz          zz
 q only:       10.902      -4.475      16.084     -17.854     -15.265     -26.986
  q+dip:        7.506      -7.487      19.534     -20.686     -15.120     -27.040
   full:        9.087      -8.106      18.395     -21.049     -14.452     -27.482

           -------------------------------------------------
          |                Geometry Summary                 |
           -------------------------------------------------

      molecular mass/u    :      638.6729609
   center of mass at/Å    :       -0.1384643      -0.5772808      -0.4015868
  moments of inertia/u·Å² :        0.3011454E+04   0.4422662E+04   0.4974648E+04
rotational constants/cm⁻¹ :        0.5597838E-02   0.3811649E-02   0.3388708E-02

 * 64 selected distances

     #   Z          #   Z                                           value/Å
     1   6 C        2   8 O                                       1.4145314
     2   8 O        3   6 C                                       1.3715466
     3   6 C        4   6 C                                       1.3879704
     4   6 C        5   6 C                                       1.3919083
     5   6 C        6   6 C                                       1.3853470
     6   6 C        7   6 C                                       1.3899189
     3   6 C        8   6 C                                       1.3886496
     7   6 C        8   6 C                                       1.3933632
     8   6 C        9  15 P                                       1.7963426
     9  15 P       10   6 C                                       1.8865073
    10   6 C       11   6 C                                       1.5280677
    10   6 C       12   6 C                                       1.5250514
    10   6 C       13   6 C                                       1.5277651
     9  15 P       14  77 Ir                                      2.2239490
    14  77 Ir      15  15 P                                       2.2458765 (max)
    15  15 P       16   6 C                                       1.8728727
    16   6 C       17   6 C                                       1.5267955
    16   6 C       18   6 C                                       1.5282439
    16   6 C       19   6 C                                       1.5238112
    15  15 P       20   6 C                                       1.8218676
    20   6 C       21   6 C                                       1.4094747
    21   6 C       22   8 O                                       1.3886887
    22   8 O       23   6 C                                       1.4178308
    21   6 C       24   6 C                                       1.3864720
    24   6 C       25   6 C                                       1.3888654
    25   6 C       26   6 C                                       1.3875279
    20   6 C       27   6 C                                       1.3705332
    26   6 C       27   6 C                                       1.3774001
    28   8 O       29   6 C                                       1.2764795
     9  15 P       30   6 C                                       1.8719471
     7   6 C       31   8 O                                       1.3507724
    30   6 C       31   8 O                                       1.4303094
     1   6 C       32   1 H                                       1.0931983
     1   6 C       33   1 H                                       1.0944792
     1   6 C       34   1 H                                       1.0889721
     4   6 C       35   1 H                                       1.0781533
     5   6 C       36   1 H                                       1.0798702
     6   6 C       37   1 H                                       1.0779624 (min)
    11   6 C       38   1 H                                       1.0885777
    11   6 C       39   1 H                                       1.0902433
    11   6 C       40   1 H                                       1.0886640
    12   6 C       41   1 H                                       1.0894342
    12   6 C       42   1 H                                       1.0893894
    12   6 C       43   1 H                                       1.0881590
    13   6 C       44   1 H                                       1.0888026
    13   6 C       45   1 H                                       1.0890804
    13   6 C       46   1 H                                       1.0887297
    17   6 C       47   1 H                                       1.0883757
    17   6 C       48   1 H                                       1.0886642
    17   6 C       49   1 H                                       1.0892610
    18   6 C       50   1 H                                       1.0906336
    18   6 C       51   1 H                                       1.0889413
    18   6 C       52   1 H                                       1.0886836
    19   6 C       53   1 H                                       1.0890418
    19   6 C       54   1 H                                       1.0889359
    19   6 C       55   1 H                                       1.0910506
    23   6 C       56   1 H                                       1.0905825
    23   6 C       57   1 H                                       1.0937121
    23   6 C       58   1 H                                       1.0948049
    24   6 C       59   1 H                                       1.0791465
    25   6 C       60   1 H                                       1.0814855
    26   6 C       61   1 H                                       1.0810661
    29   6 C       62   1 H                                       1.1253485
    30   6 C       63   1 H                                       1.0946899

 * 5 distinct bonds (by element types)

   Z      Z             #   av. dist./Å        max./Å        min./Å
   1 H    6 C          32     1.0893169     1.1253485     1.0779624
   6 C    6 C          18     1.4342870     1.5282439     1.3705332
   6 C    8 O           7     1.3785941     1.4303094     1.2764795
   6 C   15 P           5     1.8499075     1.8865073     1.7963426
  15 P   77 Ir          2     2.2349127     2.2458765     2.2239490


optimized geometry written to: xtbopt.xyz


           -------------------------------------------------
          | TOTAL ENERGY              -92.832827896087 Eh   |
          | GRADIENT NORM               0.000119234713 Eh/α |
          | HOMO-LUMO GAP               1.533789586347 eV   |
           -------------------------------------------------

------------------------------------------------------------------------
 * finished run on 2022/10/30 at 19:08:01.014     
------------------------------------------------------------------------
 total:
 * wall-time:     0 d,  0 h,  0 min,  8.648 sec
 *  cpu-time:     0 d,  0 h,  0 min, 57.753 sec
 * ratio c/w:     6.678 speedup
 SCF:
 * wall-time:     0 d,  0 h,  0 min,  1.369 sec
 *  cpu-time:     0 d,  0 h,  0 min,  2.693 sec
 * ratio c/w:     1.968 speedup
 ANC optimizer:
 * wall-time:     0 d,  0 h,  0 min,  6.722 sec
 *  cpu-time:     0 d,  0 h,  0 min, 53.408 sec
 * ratio c/w:     7.945 speedup

