      -----------------------------------------------------------      
     |                   =====================                   |     
     |                           x T B                           |     
     |                   =====================                   |     
     |                         S. Grimme                         |     
     |          Mulliken Center for Theoretical Chemistry        |     
     |                    University of Bonn                     |     
      -----------------------------------------------------------      

   * xtb version 6.5.1 (b24c23e) compiled by 'conda@728c89f4b128' on 2022-07-12

   xtb is free software: you can redistribute it and/or modify it under
   the terms of the GNU Lesser General Public License as published by
   the Free Software Foundation, either version 3 of the License, or
   (at your option) any later version.
   
   xtb is distributed in the hope that it will be useful,
   but WITHOUT ANY WARRANTY; without even the implied warranty of
   MERCHANTABILITY or FITNESS FOR A PARTICULAR PURPOSE.  See the
   GNU Lesser General Public License for more details.
   
   Cite this work as:
   * C. Bannwarth, E. Caldeweyher, S. Ehlert, A. Hansen, P. Pracht,
     J. Seibert, S. Spicher, S. Grimme, WIREs Comput. Mol. Sci., 2020, 11,
     e01493. DOI: 10.1002/wcms.1493
   
   for GFN2-xTB:
   * C. Bannwarth, S. Ehlert and S. Grimme., J. Chem. Theory Comput., 2019,
     15, 1652-1671. DOI: 10.1021/acs.jctc.8b01176
   for GFN1-xTB:
   * S. Grimme, C. Bannwarth, P. Shushkov, J. Chem. Theory Comput., 2017,
     13, 1989-2009. DOI: 10.1021/acs.jctc.7b00118
   for GFN0-xTB:
   * P. Pracht, E. Caldeweyher, S. Ehlert, S. Grimme, ChemRxiv, 2019, preprint.
     DOI: 10.26434/chemrxiv.8326202.v1
   for GFN-FF:
   * S. Spicher and S. Grimme, Angew. Chem. Int. Ed., 2020, 59, 15665-15673.
     DOI: 10.1002/anie.202004239
   
   for ALPB and GBSA implicit solvation:
   * S. Ehlert, M. Stahn, S. Spicher, S. Grimme, J. Chem. Theory Comput.,
     2021, 17, 4250-4261. DOI: 10.1021/acs.jctc.1c00471
   
   for DFT-D4:
   * E. Caldeweyher, C. Bannwarth and S. Grimme, J. Chem. Phys., 2017,
     147, 034112. DOI: 10.1063/1.4993215
   * E. Caldeweyher, S. Ehlert, A. Hansen, H. Neugebauer, S. Spicher,
     C. Bannwarth and S. Grimme, J. Chem. Phys., 2019, 150, 154122.
     DOI: 10.1063/1.5090222
   * E. Caldeweyher, J.-M. Mewes, S. Ehlert and S. Grimme, Phys. Chem. Chem. Phys.
     2020, 22, 8499-8512. DOI: 10.1039/D0CP00502A
   
   for sTDA-xTB:
   * S. Grimme and C. Bannwarth, J. Chem. Phys., 2016, 145, 054103.
     DOI: 10.1063/1.4959605
   
   in the mass-spec context:
   * V. Asgeirsson, C. Bauer and S. Grimme, Chem. Sci., 2017, 8, 4879.
     DOI: 10.1039/c7sc00601b
   * J. Koopman and S. Grimme, ACS Omega 2019, 4, 12, 15120-15133.
     DOI: 10.1021/acsomega.9b02011
   
   for metadynamics refer to:
   * S. Grimme, J. Chem. Theory Comput., 2019, 155, 2847-2862
     DOI: 10.1021/acs.jctc.9b00143
   
   for SPH calculations refer to:
   * S. Spicher and S. Grimme, J. Chem. Theory Comput., 2021, 17, 1701-1714
     DOI: 10.1021/acs.jctc.0c01306
   
   with help from (in alphabetical order)
   P. Atkinson, C. Bannwarth, F. Bohle, G. Brandenburg, E. Caldeweyher
   M. Checinski, S. Dohm, S. Ehlert, S. Ehrlich, I. Gerasimov, C. Hölzer
   A. Katbashev, J. Koopman, C. Lavigne, S. Lehtola, F. März, M. Müller,
   F. Musil, H. Neugebauer, J. Pisarek, C. Plett, P. Pracht, F. Pultar,
   J. Seibert, P. Shushkov, S. Spicher, M. Stahn, M. Steiner, T. Strunk,
   J. Stückrath, T. Rose, and J. Unsleber
   
 * started run on 2022/11/14 at 22:10:45.637     

           -------------------------------------------------
          |                Calculation Setup                |
           -------------------------------------------------

          program call               : xtb 3_5_dimethyl_4_metoxy_phenyl.xyz --gfn2 --chrg 0 --uhf 1 --alpb ch2cl2 --opt 1
          coordinate file            : 3_5_dimethyl_4_metoxy_phenyl.xyz
          omp threads                :                     8

   ID    Z sym.   atoms
    1    6 C      1-6, 9, 13, 18
    2    1 H      7, 8, 10-12, 14-16, 19-21
    3    8 O      17

           -------------------------------------------------
          |                 G F N 2 - x T B                 |
           -------------------------------------------------

        Reference                      10.1021/acs.jctc.8b01176
      * Hamiltonian:
        H0-scaling (s, p, d)           1.850000    2.230000    2.230000
        zeta-weighting                 0.500000
      * Dispersion:
        s8                             2.700000
        a1                             0.520000
        a2                             5.000000
        s9                             5.000000
      * Repulsion:
        kExp                           1.500000    1.000000
        rExp                           1.000000
      * Coulomb:
        alpha                          2.000000
        third order                    shell-resolved
        anisotropic                    true
        a3                             3.000000
        a5                             4.000000
        cn-shift                       1.200000
        cn-exp                         4.000000
        max-rad                        5.000000

      * Solvation model:               ALPB
        Solvent                        ch2cl2
        Parameter file                 internal GFN2-xTB/ALPB
        Dielectric constant                8.9300E+00
        Reference state                gsolv [1 M gas/solution]
        Free energy shift                  4.1487E-03 Eh       2.6033E+00 kcal/mol
        Temperature                        2.9815E+02 K
        Density                            1.3300E+00 kg/L
        Solvent mass                       8.4930E+01 g/mol
        Interaction kernel             P16
        Born radius scaling (c1)           1.5691E+00
        Born radii integrator          GBOBC
        Born offset                        0.0000E+00 a0       0.0000E+00 AA
        H-bond correction              false
        Ion screening                  false
        Surface tension                    1.0000E-05 Eh       1.5569E+01 dyn/cm
        Grid points                               230 per atom

          ...................................................
          :                      SETUP                      :
          :.................................................:
          :  # basis functions                  51          :
          :  # atomic orbitals                  51          :
          :  # shells                           31          :
          :  # electrons                        53          :
          :  max. iterations                   250          :
          :  Hamiltonian                  GFN2-xTB          :
          :  restarted?                      false          :
          :  GBSA solvation                   true          :
          :  PC potential                    false          :
          :  electronic temp.          300.0000000     K    :
          :  accuracy                    1.0000000          :
          :  -> integral cutoff          0.2500000E+02      :
          :  -> integral neglect         0.1000000E-07      :
          :  -> SCF convergence          0.1000000E-05 Eh   :
          :  -> wf. convergence          0.1000000E-03 e    :
          :  Broyden damping             0.4000000          :
          ...................................................

 iter      E             dE          RMSdq      gap      omega  full diag
   1    -29.2495830 -0.292496E+02  0.454E+00    3.01       0.0  T
   2    -29.2780086 -0.284256E-01  0.254E+00    2.89       1.0  T
   3    -29.2760070  0.200165E-02  0.679E-01    3.19       1.0  T
   4    -29.2782259 -0.221891E-02  0.317E-01    2.84       1.0  T
   5    -29.2802056 -0.197974E-02  0.787E-02    3.01       1.0  T
   6    -29.2802268 -0.211940E-04  0.469E-02    2.98       1.0  T
   7    -29.2802367 -0.991539E-05  0.210E-02    2.99       1.0  T
   8    -29.2802388 -0.210446E-05  0.485E-03    2.99       4.5  T
   9    -29.2802390 -0.136767E-06  0.258E-03    2.99       8.4  T
  10    -29.2802390 -0.313927E-07  0.110E-03    2.99      19.8  T
  11    -29.2802390 -0.408383E-08  0.434E-04    2.99      50.2  T
  12    -29.2802390 -0.512358E-09  0.108E-04    2.99     202.8  T

   *** convergence criteria satisfied after 12 iterations ***

         #    Occupation            Energy/Eh            Energy/eV
      -------------------------------------------------------------
         1        2.0000           -0.6969749             -18.9657
       ...           ...                  ...                  ...
        21        2.0000           -0.4561677             -12.4130
        22        2.0000           -0.4539167             -12.3517
        23        2.0000           -0.4351784             -11.8418
        24        2.0000           -0.4009915             -10.9115
        25        2.0000           -0.3959001             -10.7730
        26        2.0000           -0.3942720             -10.7287
        27        1.0000           -0.3356954              -9.1347 (HOMO)
        28                         -0.2258088              -6.1446 (LUMO)
        29                         -0.2232743              -6.0756
        30                         -0.1014406              -2.7603
        31                          0.0005548               0.0151
        32                          0.0619341               1.6853
       ...                                ...                  ...
        51                          0.6140027              16.7079
      -------------------------------------------------------------
                  HL-Gap            0.1098866 Eh            2.9902 eV
             Fermi-level           -0.3228301 Eh           -8.7847 eV

 SCC (total)                   0 d,  0 h,  0 min,  2.873 sec
 SCC setup                      ...        0 min,  0.041 sec (  1.429%)
 Dispersion                     ...        0 min,  0.048 sec (  1.671%)
 classical contributions        ...        0 min,  0.024 sec (  0.832%)
 integral evaluation            ...        0 min,  0.087 sec (  3.036%)
 iterations                     ...        0 min,  2.448 sec ( 85.180%)
 molecular gradient             ...        0 min,  0.225 sec (  7.843%)
 printout                       ...        0 min,  0.000 sec (  0.006%)

         :::::::::::::::::::::::::::::::::::::::::::::::::::::
         ::                     SUMMARY                     ::
         :::::::::::::::::::::::::::::::::::::::::::::::::::::
         :: total energy             -28.838924391254 Eh    ::
         :: total w/o Gsasa/hb       -28.827265132038 Eh    ::
         :: gradient norm              0.093667746675 Eh/a0 ::
         :: HOMO-LUMO gap              2.990165716296 eV    ::
         ::.................................................::
         :: SCC energy               -29.280238995757 Eh    ::
         :: -> isotropic ES            0.023135403198 Eh    ::
         :: -> anisotropic ES          0.004522859897 Eh    ::
         :: -> anisotropic XC          0.012317167057 Eh    ::
         :: -> dispersion             -0.017313603860 Eh    ::
         :: -> Gsolv                  -0.013482486865 Eh    ::
         ::    -> Gelec               -0.001823227649 Eh    ::
         ::    -> Gsasa               -0.015807956577 Eh    ::
         ::    -> Ghb                  0.000000000000 Eh    ::
         ::    -> Gshift               0.004148697361 Eh    ::
         :: repulsion energy           0.441203989445 Eh    ::
         :: add. restraining           0.000000000000 Eh    ::
         :: total charge               0.000000000000 e     ::
         :::::::::::::::::::::::::::::::::::::::::::::::::::::

      ----------------------------------------------------------- 
     |                   =====================                   |
     |                        A N C O P T                        |
     |                   =====================                   |
     |               Approximate Normal Coordinate               |
     |                Rational Function Optimizer                |
      ----------------------------------------------------------- 

          ...................................................
          :                      SETUP                      :
          :.................................................:
          :   optimization level             tight          :
          :   max. optcycles                   200          :
          :   ANC micro-cycles                  20          :
          :   degrees of freedom                57          :
          :.................................................:
          :   RF solver                   davidson          :
          :   write xtbopt.log                true          :
          :   linear?                        false          :
          :   energy convergence         0.1000000E-05 Eh   :
          :   grad. convergence          0.8000000E-03 Eh/α :
          :   maximium RF displ.         1.0000000          :
          :   Hlow (freq-cutoff)         0.1000000E-01      :
          :   Hmax (freq-cutoff)         5.0000000          :
          :   S6 in model hess.         20.0000000          :
          ...................................................

generating ANC from model Hessian ...
Using Lindh-Hessian (1995)
 Shifting diagonal of input Hessian by    8.1883855680137448E-003
 Lowest  eigenvalues of input Hessian
    0.000000    0.000000    0.000000    0.000000    0.000000    0.000000
    0.010000    0.010932    0.013209    0.013263    0.014692    0.017325
    0.017628    0.018942    0.030065    0.030319    0.039496    0.041868
 Highest eigenvalues
    1.399226    1.458707    1.535537    1.815311    1.877755    1.908059


........................................................................
.............................. CYCLE    1 ..............................
........................................................................
   1    -29.2802390 -0.292802E+02  0.321E-05    2.99       0.0  T
   2    -29.2802390 -0.751044E-11  0.196E-05    2.99    1112.4  T
   3    -29.2802390 -0.359179E-11  0.113E-05    2.99    1935.3  T
     SCC iter.                  ...        0 min,  0.337 sec
     gradient                   ...        0 min,  0.194 sec
 * total energy  :   -28.8389244 Eh     change       -0.2766498E-10 Eh
   gradient norm :     0.0936653 Eh/α   predicted     0.0000000E+00 (-100.00%)
   displ. norm   :     0.2055127 α      lambda       -0.1171532E-01
   maximum displ.:     0.0686487 α      in ANC's #18, #37, #10, ...

........................................................................
.............................. CYCLE    2 ..............................
........................................................................
   1    -29.2902509 -0.292903E+02  0.253E-01    2.85       0.0  T
   2    -29.2903050 -0.540949E-04  0.146E-01    2.80       1.0  T
   3    -29.2902326  0.723665E-04  0.733E-02    2.87       1.0  T
   4    -29.2903311 -0.984689E-04  0.103E-02    2.83       2.1  T
   5    -29.2903319 -0.881360E-06  0.576E-03    2.83       3.8  T
   6    -29.2903320 -0.102511E-07  0.249E-03    2.83       8.8  T
   7    -29.2903320 -0.586829E-07  0.932E-04    2.83      23.4  T
   8    -29.2903320 -0.329776E-08  0.309E-04    2.83      70.7  T
     SCC iter.                  ...        0 min,  0.947 sec
     gradient                   ...        0 min,  0.215 sec
 * total energy  :   -28.8465179 Eh     change       -0.7593525E-02 Eh
   gradient norm :     0.0377667 Eh/α   predicted    -0.6105752E-02 ( -19.59%)
   displ. norm   :     0.1796108 α      lambda       -0.2652484E-02
   maximum displ.:     0.1211933 α      in ANC's #4, #8, #3, ...

........................................................................
.............................. CYCLE    3 ..............................
........................................................................
   1    -29.2938494 -0.292938E+02  0.168E-01    2.70       0.0  T
   2    -29.2938722 -0.227785E-04  0.999E-02    2.67       1.0  T
   3    -29.2938414  0.307929E-04  0.457E-02    2.71       1.0  T
   4    -29.2938827 -0.413421E-04  0.562E-03    2.69       3.9  T
   5    -29.2938831 -0.320794E-06  0.285E-03    2.69       7.7  T
   6    -29.2938831 -0.112921E-07  0.129E-03    2.69      17.0  T
   7    -29.2938831 -0.925617E-08  0.571E-04    2.69      38.2  T
   8    -29.2938831 -0.127108E-08  0.150E-04    2.69     145.4  T
     SCC iter.                  ...        0 min,  0.939 sec
     gradient                   ...        0 min,  0.020 sec
 * total energy  :   -28.8479441 Eh     change       -0.1426175E-02 Eh
   gradient norm :     0.0068630 Eh/α   predicted    -0.1370104E-02 (  -3.93%)
   displ. norm   :     0.0947551 α      lambda       -0.1936597E-03
   maximum displ.:     0.0694342 α      in ANC's #4, #1, #3, ...

........................................................................
.............................. CYCLE    4 ..............................
........................................................................
   1    -29.2929685 -0.292930E+02  0.481E-02    2.66       0.0  T
   2    -29.2929687 -0.226494E-06  0.287E-02    2.66       1.0  T
   3    -29.2929687 -0.136291E-07  0.213E-03    2.66      10.3  T
   4    -29.2929688 -0.501171E-07  0.110E-03    2.66      19.8  T
   5    -29.2929688 -0.557437E-08  0.504E-04    2.66      43.3  T
   6    -29.2929688 -0.623654E-09  0.185E-04    2.66     118.3  T
     SCC iter.                  ...        0 min,  0.494 sec
     gradient                   ...        0 min,  0.029 sec
 * total energy  :   -28.8480898 Eh     change       -0.1457311E-03 Eh
   gradient norm :     0.0038297 Eh/α   predicted    -0.9775626E-04 ( -32.92%)
   displ. norm   :     0.1565986 α      lambda       -0.1778397E-03
   maximum displ.:     0.1122644 α      in ANC's #4, #1, #5, ...

........................................................................
.............................. CYCLE    5 ..............................
........................................................................
   1    -29.2922010 -0.292922E+02  0.666E-02    2.64       0.0  T
   2    -29.2922014 -0.384989E-06  0.398E-02    2.65       1.0  T
   3    -29.2922010  0.400731E-06  0.523E-03    2.64       4.2  T
   4    -29.2922016 -0.620011E-06  0.182E-03    2.65      12.0  T
   5    -29.2922017 -0.800450E-08  0.703E-04    2.65      31.0  T
   6    -29.2922017 -0.110299E-08  0.263E-04    2.65      83.0  T
     SCC iter.                  ...        0 min,  0.490 sec
     gradient                   ...        0 min,  0.023 sec
 * total energy  :   -28.8482069 Eh     change       -0.1170779E-03 Eh
   gradient norm :     0.0036563 Eh/α   predicted    -0.9110109E-04 ( -22.19%)
   displ. norm   :     0.1201896 α      lambda       -0.7470426E-04
   maximum displ.:     0.0743147 α      in ANC's #4, #1, #5, ...

........................................................................
.............................. CYCLE    6 ..............................
........................................................................
   1    -29.2924394 -0.292924E+02  0.432E-02    2.65       0.0  T
   2    -29.2924395 -0.154323E-06  0.259E-02    2.65       1.0  T
   3    -29.2924393  0.236322E-06  0.382E-03    2.65       5.7  T
   4    -29.2924396 -0.336786E-06  0.114E-03    2.65      19.2  T
   5    -29.2924396 -0.159870E-08  0.495E-04    2.65      44.1  T
   6    -29.2924396 -0.777682E-09  0.176E-04    2.65     123.7  T
     SCC iter.                  ...        0 min,  0.502 sec
     gradient                   ...        0 min,  0.043 sec
 * total energy  :   -28.8482661 Eh     change       -0.5923355E-04 Eh
   gradient norm :     0.0030966 Eh/α   predicted    -0.3792016E-04 ( -35.98%)
   displ. norm   :     0.1858833 α      lambda       -0.9928078E-04
   maximum displ.:     0.1095385 α      in ANC's #1, #4, #5, ...

........................................................................
.............................. CYCLE    7 ..............................
........................................................................
   1    -29.2928949 -0.292929E+02  0.591E-02    2.66       0.0  T
   2    -29.2928952 -0.295369E-06  0.356E-02    2.66       1.0  T
   3    -29.2928948  0.363836E-06  0.489E-03    2.66       4.5  T
   4    -29.2928954 -0.536980E-06  0.143E-03    2.66      15.3  T
   5    -29.2928954 -0.256874E-08  0.700E-04    2.66      31.2  T
   6    -29.2928954 -0.145092E-08  0.226E-04    2.66      96.5  T
     SCC iter.                  ...        0 min,  0.506 sec
     gradient                   ...        0 min,  0.022 sec
 * total energy  :   -28.8483418 Eh     change       -0.7564205E-04 Eh
   gradient norm :     0.0022668 Eh/α   predicted    -0.5135601E-04 ( -32.11%)
   displ. norm   :     0.2481225 α      lambda       -0.1085828E-03
   maximum displ.:     0.1398147 α      in ANC's #1, #5, #6, ...

........................................................................
.............................. CYCLE    8 ..............................
........................................................................
   1    -29.2929788 -0.292930E+02  0.710E-02    2.67       0.0  T
   2    -29.2929793 -0.496928E-06  0.430E-02    2.67       1.0  T
   3    -29.2929788  0.525100E-06  0.601E-03    2.67       3.6  T
   4    -29.2929796 -0.791777E-06  0.165E-03    2.67      13.2  T
   5    -29.2929796 -0.478204E-08  0.838E-04    2.67      26.0  T
   6    -29.2929796 -0.173231E-08  0.243E-04    2.67      90.0  T
     SCC iter.                  ...        0 min,  0.490 sec
     gradient                   ...        0 min,  0.032 sec
 * total energy  :   -28.8484237 Eh     change       -0.8191508E-04 Eh
   gradient norm :     0.0039491 Eh/α   predicted    -0.5763514E-04 ( -29.64%)
   displ. norm   :     0.2941371 α      lambda       -0.1250230E-03
   maximum displ.:     0.1486086 α      in ANC's #1, #5, #6, ...

........................................................................
.............................. CYCLE    9 ..............................
........................................................................
   1    -29.2926744 -0.292927E+02  0.797E-02    2.69       0.0  T
   2    -29.2926751 -0.664317E-06  0.485E-02    2.69       1.0  T
   3    -29.2926745  0.650891E-06  0.705E-03    2.69       3.1  T
   4    -29.2926755 -0.101342E-05  0.181E-03    2.69      12.0  T
   5    -29.2926755 -0.441716E-08  0.866E-04    2.69      25.2  T
   6    -29.2926755 -0.210134E-08  0.239E-04    2.69      91.4  T
     SCC iter.                  ...        0 min,  0.448 sec
     gradient                   ...        0 min,  0.024 sec
 * total energy  :   -28.8485082 Eh     change       -0.8454191E-04 Eh
   gradient norm :     0.0067570 Eh/α   predicted    -0.6792261E-04 ( -19.66%)
   displ. norm   :     0.1816456 α      lambda       -0.1307322E-03
   maximum displ.:     0.1045554 α      in ANC's #5, #2, #8, ...

........................................................................
.............................. CYCLE   10 ..............................
........................................................................
   1    -29.2939506 -0.292940E+02  0.528E-02    2.69       0.0  T
   2    -29.2939511 -0.549658E-06  0.318E-02    2.69       1.0  T
   3    -29.2939509  0.217711E-06  0.508E-03    2.69       4.3  T
   4    -29.2939513 -0.371853E-06  0.153E-03    2.69      14.2  T
   5    -29.2939513 -0.171120E-07  0.764E-04    2.69      28.6  T
   6    -29.2939513 -0.932715E-09  0.284E-04    2.69      76.9  T
     SCC iter.                  ...        0 min,  0.452 sec
     gradient                   ...        0 min,  0.012 sec
 * total energy  :   -28.8485971 Eh     change       -0.8888158E-04 Eh
   gradient norm :     0.0063535 Eh/α   predicted    -0.6755611E-04 ( -23.99%)
   displ. norm   :     0.1893727 α      lambda       -0.1165555E-03
   maximum displ.:     0.1149870 α      in ANC's #5, #6, #2, ...

........................................................................
.............................. CYCLE   11 ..............................
........................................................................
   1    -29.2930868 -0.292931E+02  0.550E-02    2.67       0.0  T
   2    -29.2930875 -0.696342E-06  0.333E-02    2.67       1.0  T
   3    -29.2930869  0.562240E-06  0.649E-03    2.67       3.4  T
   4    -29.2930877 -0.769305E-06  0.157E-03    2.67      13.9  T
   5    -29.2930877 -0.174668E-07  0.801E-04    2.67      27.2  T
   6    -29.2930877 -0.149812E-08  0.338E-04    2.67      64.6  T
     SCC iter.                  ...        0 min,  0.486 sec
     gradient                   ...        0 min,  0.048 sec
 * total energy  :   -28.8486818 Eh     change       -0.8468918E-04 Eh
   gradient norm :     0.0043289 Eh/α   predicted    -0.6037277E-04 ( -28.71%)
   displ. norm   :     0.1610684 α      lambda       -0.1497980E-03
   maximum displ.:     0.0930473 α      in ANC's #5, #1, #3, ...

........................................................................
.............................. CYCLE   12 ..............................
........................................................................
   1    -29.2941800 -0.292942E+02  0.551E-02    2.64       0.0  T
   2    -29.2941809 -0.888595E-06  0.328E-02    2.64       1.0  T
   3    -29.2941806  0.303760E-06  0.540E-03    2.64       4.0  T
   4    -29.2941811 -0.440753E-06  0.174E-03    2.64      12.6  T
   5    -29.2941811 -0.350042E-07  0.792E-04    2.64      27.6  T
   6    -29.2941811 -0.883304E-09  0.358E-04    2.64      61.0  T
     SCC iter.                  ...        0 min,  0.482 sec
     gradient                   ...        0 min,  0.019 sec
 * total energy  :   -28.8487582 Eh     change       -0.7636157E-04 Eh
   gradient norm :     0.0046464 Eh/α   predicted    -0.7684361E-04 (   0.63%)
   displ. norm   :     0.3251435 α      lambda       -0.1533405E-03
   maximum displ.:     0.2175254 α      in ANC's #5, #6, #2, ...

........................................................................
.............................. CYCLE   13 ..............................
........................................................................
   1    -29.2896877 -0.292897E+02  0.946E-02    2.62       0.0  T
   2    -29.2896901 -0.237178E-05  0.571E-02    2.62       1.0  T
   3    -29.2896890  0.106844E-05  0.101E-02    2.62       2.2  T
   4    -29.2896906 -0.158178E-05  0.309E-03    2.62       7.1  T
   5    -29.2896907 -0.999144E-07  0.157E-03    2.62      13.9  T
   6    -29.2896907 -0.630541E-08  0.376E-04    2.62      58.0  T
   7    -29.2896907 -0.846878E-09  0.172E-04    2.62     127.2  T
     SCC iter.                  ...        0 min,  0.563 sec
     gradient                   ...        0 min,  0.012 sec
 * total energy  :   -28.8487872 Eh     change       -0.2906017E-04 Eh
   gradient norm :     0.0098197 Eh/α   predicted    -0.8478942E-04 ( 191.77%)
   displ. norm   :     0.1231258 α      lambda       -0.1781768E-03
   maximum displ.:     0.0666733 α      in ANC's #5, #2, #1, ...

........................................................................
.............................. CYCLE   14 ..............................
........................................................................
   1    -29.2925075 -0.292925E+02  0.407E-02    2.64       0.0  T
   2    -29.2925083 -0.773303E-06  0.242E-02    2.64       1.0  T
   3    -29.2925080  0.266354E-06  0.549E-03    2.64       4.0  T
   4    -29.2925084 -0.406909E-06  0.165E-03    2.64      13.2  T
   5    -29.2925085 -0.283667E-07  0.867E-04    2.64      25.2  T
   6    -29.2925085 -0.174422E-08  0.298E-04    2.64      73.2  T
     SCC iter.                  ...        0 min,  0.507 sec
     gradient                   ...        0 min,  0.051 sec
 * total energy  :   -28.8488965 Eh     change       -0.1093096E-03 Eh
   gradient norm :     0.0047290 Eh/α   predicted    -0.9043984E-04 ( -17.26%)
   displ. norm   :     0.1306498 α      lambda       -0.1122610E-03
   maximum displ.:     0.0786768 α      in ANC's #5, #1, #4, ...

........................................................................
.............................. CYCLE   15 ..............................
........................................................................
   1    -29.2935402 -0.292935E+02  0.343E-02    2.65       0.0  T
   2    -29.2935405 -0.233270E-06  0.204E-02    2.65       1.1  T
   3    -29.2935403  0.129299E-06  0.304E-03    2.65       7.2  T
   4    -29.2935405 -0.169965E-06  0.881E-04    2.65      24.8  T
   5    -29.2935405 -0.101989E-07  0.393E-04    2.65      55.6  T
     SCC iter.                  ...        0 min,  0.424 sec
     gradient                   ...        0 min,  0.026 sec
 * total energy  :   -28.8489871 Eh     change       -0.9055650E-04 Eh
   gradient norm :     0.0026251 Eh/α   predicted    -0.5709139E-04 ( -36.95%)
   displ. norm   :     0.3616144 α      lambda       -0.1897602E-03
   maximum displ.:     0.2326672 α      in ANC's #5, #1, #4, ...

........................................................................
.............................. CYCLE   16 ..............................
........................................................................
   1    -29.2923351 -0.292923E+02  0.881E-02    2.66       0.0  T
   2    -29.2923361 -0.980485E-06  0.531E-02    2.66       1.0  T
   3    -29.2923356  0.526031E-06  0.744E-03    2.66       2.9  T
   4    -29.2923364 -0.875265E-06  0.226E-03    2.66       9.6  T
   5    -29.2923365 -0.223874E-07  0.963E-04    2.66      22.7  T
   6    -29.2923365 -0.175707E-08  0.360E-04    2.66      60.6  T
     SCC iter.                  ...        0 min,  0.497 sec
     gradient                   ...        0 min,  0.049 sec
 * total energy  :   -28.8491005 Eh     change       -0.1134096E-03 Eh
   gradient norm :     0.0051075 Eh/α   predicted    -0.1072892E-03 (  -5.40%)
   displ. norm   :     0.1017943 α      lambda       -0.6582912E-04
   maximum displ.:     0.0684794 α      in ANC's #5, #1, #6, ...

........................................................................
.............................. CYCLE   17 ..............................
........................................................................
   1    -29.2934893 -0.292935E+02  0.257E-02    2.66       0.0  T
   2    -29.2934896 -0.369604E-06  0.150E-02    2.66       1.5  T
   3    -29.2934896  0.455065E-07  0.297E-03    2.66       7.3  T
   4    -29.2934897 -0.812123E-07  0.108E-03    2.66      20.1  T
   5    -29.2934897 -0.164680E-07  0.526E-04    2.66      41.5  T
   6    -29.2934897 -0.813142E-09  0.216E-04    2.66     100.9  T
     SCC iter.                  ...        0 min,  0.485 sec
     gradient                   ...        0 min,  0.026 sec
 * total energy  :   -28.8491451 Eh     change       -0.4461879E-04 Eh
   gradient norm :     0.0040381 Eh/α   predicted    -0.3326197E-04 ( -25.45%)
   displ. norm   :     0.1387391 α      lambda       -0.8091187E-04
   maximum displ.:     0.0770927 α      in ANC's #5, #1, #6, ...

........................................................................
.............................. CYCLE   18 ..............................
........................................................................
   1    -29.2945976 -0.292946E+02  0.358E-02    2.66       0.0  T
   2    -29.2945981 -0.496950E-06  0.212E-02    2.66       1.0  T
   3    -29.2945979  0.179546E-06  0.389E-03    2.66       5.6  T
   4    -29.2945981 -0.232751E-06  0.131E-03    2.66      16.6  T
   5    -29.2945981 -0.270195E-07  0.515E-04    2.66      42.4  T
   6    -29.2945981 -0.280910E-09  0.209E-04    2.66     104.5  T
     SCC iter.                  ...        0 min,  0.482 sec
     gradient                   ...        0 min,  0.018 sec
 * total energy  :   -28.8491897 Eh     change       -0.4458281E-04 Eh
   gradient norm :     0.0021933 Eh/α   predicted    -0.4123868E-04 (  -7.50%)
   displ. norm   :     0.2748514 α      lambda       -0.8227813E-04
   maximum displ.:     0.1995994 α      in ANC's #5, #6, #1, ...

........................................................................
.............................. CYCLE   19 ..............................
........................................................................
   1    -29.2918949 -0.292919E+02  0.633E-02    2.65       0.0  T
   2    -29.2918964 -0.152412E-05  0.379E-02    2.65       1.0  T
   3    -29.2918959  0.536145E-06  0.753E-03    2.65       2.9  T
   4    -29.2918966 -0.739689E-06  0.228E-03    2.65       9.6  T
   5    -29.2918967 -0.611206E-07  0.949E-04    2.65      23.0  T
   6    -29.2918967 -0.241630E-08  0.376E-04    2.65      58.0  T
     SCC iter.                  ...        0 min,  0.500 sec
     gradient                   ...        0 min,  0.024 sec
 * total energy  :   -28.8492011 Eh     change       -0.1143464E-04 Eh
   gradient norm :     0.0069954 Eh/α   predicted    -0.4424824E-04 ( 286.97%)
   displ. norm   :     0.0997320 α      lambda       -0.1113279E-03
   maximum displ.:     0.0535146 α      in ANC's #1, #5, #4, ...

........................................................................
.............................. CYCLE   20 ..............................
........................................................................
   1    -29.2942774 -0.292943E+02  0.322E-02    2.65       0.0  T
   2    -29.2942782 -0.814465E-06  0.189E-02    2.65       1.2  T
   3    -29.2942781  0.140889E-06  0.531E-03    2.65       4.1  T
   4    -29.2942783 -0.246238E-06  0.180E-03    2.65      12.1  T
   5    -29.2942784 -0.350749E-07  0.751E-04    2.65      29.0  T
   6    -29.2942784 -0.120872E-08  0.235E-04    2.65      93.0  T
     SCC iter.                  ...        0 min,  0.547 sec
     gradient                   ...        0 min,  0.074 sec
 * total energy  :   -28.8492659 Eh     change       -0.6476553E-04 Eh
   gradient norm :     0.0042189 Eh/α   predicted    -0.5621605E-04 ( -13.20%)
   displ. norm   :     0.1032664 α      lambda       -0.8309059E-04
   maximum displ.:     0.0593133 α      in ANC's #5, #2, #6, ...
 * RMSD in coord.:     0.5168454 α      energy gain  -0.1034151E-01 Eh

generating ANC from model Hessian ...
Using Lindh-Hessian (1995)
 Shifting diagonal of input Hessian by    7.9639678387335381E-003
 Lowest  eigenvalues of input Hessian
    0.000000    0.000000    0.000000    0.000000    0.000000    0.000000
    0.010000    0.010883    0.013490    0.013648    0.014278    0.017881
    0.018337    0.019393    0.031917    0.034118    0.042322    0.048055
 Highest eigenvalues
    1.484167    1.568323    1.642648    1.867450    1.968415    2.014023


........................................................................
.............................. CYCLE   21 ..............................
........................................................................
   1    -29.2946820 -0.292947E+02  0.272E-02    2.65       0.0  T
   2    -29.2946823 -0.318884E-06  0.163E-02    2.65       1.3  T
   3    -29.2946819  0.423072E-06  0.569E-03    2.65       3.8  T
   4    -29.2946824 -0.534467E-06  0.871E-04    2.65      25.0  T
   5    -29.2946824 -0.492669E-08  0.451E-04    2.65      48.4  T
     SCC iter.                  ...        0 min,  0.400 sec
     gradient                   ...        0 min,  0.098 sec
 * total energy  :   -28.8493394 Eh     change       -0.7353110E-04 Eh
   gradient norm :     0.0030517 Eh/α   predicted     0.0000000E+00 (-100.00%)
   displ. norm   :     0.0604550 α      lambda       -0.5616299E-04
   maximum displ.:     0.0461233 α      in ANC's #2, #1, #5, ...

........................................................................
.............................. CYCLE   22 ..............................
........................................................................
   1    -29.2944835 -0.292945E+02  0.187E-02    2.65       0.0  T
   2    -29.2944836 -0.121714E-06  0.112E-02    2.65       1.9  T
   3    -29.2944835  0.108739E-06  0.298E-03    2.65       7.3  T
   4    -29.2944836 -0.142285E-06  0.618E-04    2.65      35.3  T
   5    -29.2944836 -0.213979E-08  0.291E-04    2.65      75.1  T
     SCC iter.                  ...        0 min,  0.900 sec
     gradient                   ...        0 min,  0.026 sec
 * total energy  :   -28.8493893 Eh     change       -0.4988039E-04 Eh
   gradient norm :     0.0014494 Eh/α   predicted    -0.2818731E-04 ( -43.49%)
   displ. norm   :     0.2569366 α      lambda       -0.1229163E-03
   maximum displ.:     0.1780290 α      in ANC's #2, #5, #1, ...

........................................................................
.............................. CYCLE   23 ..............................
........................................................................
   1    -29.2932567 -0.292933E+02  0.703E-02    2.65       0.0  T
   2    -29.2932582 -0.148361E-05  0.422E-02    2.65       1.0  T
   3    -29.2932562  0.199353E-05  0.121E-02    2.65       1.8  T
   4    -29.2932587 -0.251474E-05  0.214E-03    2.65      10.2  T
   5    -29.2932587 -0.210566E-07  0.102E-03    2.65      21.4  T
   6    -29.2932587 -0.436934E-08  0.502E-04    2.65      43.5  T
   7    -29.2932587 -0.114045E-08  0.882E-05    2.65     247.5  T
     SCC iter.                  ...        0 min,  0.582 sec
     gradient                   ...        0 min,  0.013 sec
 * total energy  :   -28.8495146 Eh     change       -0.1252807E-03 Eh
   gradient norm :     0.0049437 Eh/α   predicted    -0.6326626E-04 ( -49.50%)
   displ. norm   :     0.1275662 α      lambda       -0.7485615E-04
   maximum displ.:     0.0901857 α      in ANC's #2, #5, #1, ...

........................................................................
.............................. CYCLE   24 ..............................
........................................................................
   1    -29.2931844 -0.292932E+02  0.311E-02    2.65       0.0  T
   2    -29.2931846 -0.143672E-06  0.188E-02    2.65       1.2  T
   3    -29.2931843  0.279446E-06  0.439E-03    2.65       5.0  T
   4    -29.2931846 -0.351882E-06  0.783E-04    2.65      27.9  T
   5    -29.2931846 -0.987683E-09  0.379E-04    2.65      57.6  T
     SCC iter.                  ...        0 min,  0.440 sec
     gradient                   ...        0 min,  0.042 sec
 * total energy  :   -28.8495822 Eh     change       -0.6764594E-04 Eh
   gradient norm :     0.0053520 Eh/α   predicted    -0.3803804E-04 ( -43.77%)
   displ. norm   :     0.2879441 α      lambda       -0.1961948E-03
   maximum displ.:     0.2032708 α      in ANC's #2, #5, #4, ...

........................................................................
.............................. CYCLE   25 ..............................
........................................................................
   1    -29.2929328 -0.292929E+02  0.694E-02    2.64       0.0  T
   2    -29.2929333 -0.535416E-06  0.419E-02    2.65       1.0  T
   3    -29.2929326  0.656548E-06  0.711E-03    2.64       3.1  T
   4    -29.2929336 -0.906793E-06  0.169E-03    2.65      12.9  T
   5    -29.2929336 -0.617725E-08  0.816E-04    2.64      26.7  T
   6    -29.2929336 -0.117862E-08  0.256E-04    2.65      85.3  T
     SCC iter.                  ...        0 min,  0.473 sec
     gradient                   ...        0 min,  0.013 sec
 * total energy  :   -28.8497400 Eh     change       -0.1578060E-03 Eh
   gradient norm :     0.0052357 Eh/α   predicted    -0.1062311E-03 ( -32.68%)
   displ. norm   :     0.3713354 α      lambda       -0.2422728E-03
   maximum displ.:     0.2710977 α      in ANC's #2, #5, #4, ...

........................................................................
.............................. CYCLE   26 ..............................
........................................................................
   1    -29.2920144 -0.292920E+02  0.898E-02    2.64       0.0  T
   2    -29.2920154 -0.104429E-05  0.542E-02    2.64       1.0  T
   3    -29.2920151  0.356628E-06  0.665E-03    2.64       3.3  T
   4    -29.2920157 -0.676170E-06  0.238E-03    2.64       9.2  T
   5    -29.2920158 -0.382521E-07  0.113E-03    2.64      19.3  T
   6    -29.2920158 -0.260834E-08  0.274E-04    2.64      79.5  T
   7    -29.2920158 -0.532662E-09  0.141E-04    2.64     155.0  T
     SCC iter.                  ...        0 min,  0.525 sec
     gradient                   ...        0 min,  0.017 sec
 * total energy  :   -28.8498941 Eh     change       -0.1541023E-03 Eh
   gradient norm :     0.0070064 Eh/α   predicted    -0.1378591E-03 ( -10.54%)
   displ. norm   :     0.1840706 α      lambda       -0.2629243E-03
   maximum displ.:     0.1350635 α      in ANC's #2, #7, #4, ...

........................................................................
.............................. CYCLE   27 ..............................
........................................................................
   1    -29.2953029 -0.292953E+02  0.572E-02    2.63       0.0  T
   2    -29.2953039 -0.106247E-05  0.340E-02    2.63       1.0  T
   3    -29.2953041 -0.144319E-06  0.378E-03    2.63       5.8  T
   4    -29.2953041 -0.452585E-07  0.176E-03    2.63      12.4  T
   5    -29.2953041 -0.922083E-08  0.995E-04    2.63      21.9  T
   6    -29.2953041 -0.903050E-08  0.237E-04    2.63      92.2  T
     SCC iter.                  ...        0 min,  0.592 sec
     gradient                   ...        0 min,  0.027 sec
 * total energy  :   -28.8500205 Eh     change       -0.1263688E-03 Eh
   gradient norm :     0.0045329 Eh/α   predicted    -0.1359174E-03 (   7.56%)
   displ. norm   :     0.3629482 α      lambda       -0.1921235E-03
   maximum displ.:     0.2588820 α      in ANC's #2, #4, #5, ...

........................................................................
.............................. CYCLE   28 ..............................
........................................................................
   1    -29.2922714 -0.292923E+02  0.945E-02    2.63       0.0  T
   2    -29.2922736 -0.220339E-05  0.569E-02    2.63       1.0  T
   3    -29.2922733  0.223239E-06  0.716E-03    2.63       3.0  T
   4    -29.2922739 -0.580474E-06  0.294E-03    2.63       7.4  T
   5    -29.2922740 -0.107910E-06  0.144E-03    2.63      15.1  T
   6    -29.2922740 -0.820793E-08  0.336E-04    2.63      64.9  T
   7    -29.2922740 -0.758948E-09  0.152E-04    2.63     144.0  T
     SCC iter.                  ...        0 min,  0.568 sec
     gradient                   ...        0 min,  0.023 sec
 * total energy  :   -28.8501242 Eh     change       -0.1036694E-03 Eh
   gradient norm :     0.0082838 Eh/α   predicted    -0.1087165E-03 (   4.87%)
   displ. norm   :     0.0626751 α      lambda       -0.1267203E-03
   maximum displ.:     0.0483680 α      in ANC's #1, #7, #4, ...

........................................................................
.............................. CYCLE   29 ..............................
........................................................................
   1    -29.2940932 -0.292941E+02  0.255E-02    2.63       0.0  T
   2    -29.2940935 -0.238453E-06  0.149E-02    2.63       1.5  T
   3    -29.2940934  0.363624E-07  0.233E-03    2.63       9.4  T
   4    -29.2940935 -0.606329E-07  0.851E-04    2.63      25.6  T
   5    -29.2940935 -0.107239E-07  0.400E-04    2.63      54.6  T
     SCC iter.                  ...        0 min,  0.401 sec
     gradient                   ...        0 min,  0.021 sec
 * total energy  :   -28.8502249 Eh     change       -0.1006713E-03 Eh
   gradient norm :     0.0045816 Eh/α   predicted    -0.6360977E-04 ( -36.81%)
   displ. norm   :     0.3706007 α      lambda       -0.2535449E-03
   maximum displ.:     0.2049118 α      in ANC's #2, #7, #4, ...

........................................................................
.............................. CYCLE   30 ..............................
........................................................................
   1    -29.2935133 -0.292935E+02  0.106E-01    2.63       0.0  T
   2    -29.2935144 -0.104268E-05  0.640E-02    2.63       1.0  T
   3    -29.2935132  0.114261E-05  0.901E-03    2.63       2.4  T
   4    -29.2935150 -0.173308E-05  0.265E-03    2.63       8.2  T
   5    -29.2935150  0.133745E-09  0.955E-04    2.63      22.9  T
   6    -29.2935150 -0.103317E-07  0.276E-04    2.63      79.1  T
     SCC iter.                  ...        0 min,  0.499 sec
     gradient                   ...        0 min,  0.010 sec
 * total energy  :   -28.8503815 Eh     change       -0.1566393E-03 Eh
   gradient norm :     0.0055495 Eh/α   predicted    -0.1441911E-03 (  -7.95%)
   displ. norm   :     0.1423459 α      lambda       -0.1495676E-03
   maximum displ.:     0.1119854 α      in ANC's #1, #7, #6, ...

........................................................................
.............................. CYCLE   31 ..............................
........................................................................
   1    -29.2959275 -0.292959E+02  0.517E-02    2.63       0.0  T
   2    -29.2959285 -0.102671E-05  0.304E-02    2.63       1.0  T
   3    -29.2959283  0.227732E-06  0.509E-03    2.63       4.3  T
   4    -29.2959286 -0.326909E-06  0.188E-03    2.63      11.6  T
   5    -29.2959287 -0.564248E-07  0.788E-04    2.63      27.7  T
   6    -29.2959287 -0.153776E-08  0.195E-04    2.63     112.0  T
     SCC iter.                  ...        0 min,  0.538 sec
     gradient                   ...        0 min,  0.070 sec
 * total energy  :   -28.8504448 Eh     change       -0.6335087E-04 Eh
   gradient norm :     0.0038730 Eh/α   predicted    -0.7630156E-04 (  20.44%)
   displ. norm   :     0.2381322 α      lambda       -0.9934910E-04
   maximum displ.:     0.1415682 α      in ANC's #2, #7, #1, ...

........................................................................
.............................. CYCLE   32 ..............................
........................................................................
   1    -29.2940038 -0.292940E+02  0.625E-02    2.63       0.0  T
   2    -29.2940045 -0.694023E-06  0.375E-02    2.63       1.0  T
   3    -29.2940044  0.290701E-07  0.416E-03    2.63       5.2  T
   4    -29.2940046 -0.174806E-06  0.178E-03    2.63      12.2  T
   5    -29.2940046 -0.272773E-07  0.919E-04    2.63      23.7  T
   6    -29.2940046 -0.264986E-08  0.203E-04    2.63     107.3  T
     SCC iter.                  ...        0 min,  0.485 sec
     gradient                   ...        0 min,  0.187 sec
 * total energy  :   -28.8505025 Eh     change       -0.5761249E-04 Eh
   gradient norm :     0.0037483 Eh/α   predicted    -0.5249218E-04 (  -8.89%)
   displ. norm   :     0.0485396 α      lambda       -0.4013400E-04
   maximum displ.:     0.0248628 α      in ANC's #1, #2, #3, ...

........................................................................
.............................. CYCLE   33 ..............................
........................................................................
   1    -29.2949911 -0.292950E+02  0.160E-02    2.63       0.0  T
   2    -29.2949912 -0.140686E-06  0.939E-03    2.63       2.3  T
   3    -29.2949912  0.418235E-07  0.201E-03    2.63      10.9  T
   4    -29.2949912 -0.576022E-07  0.692E-04    2.63      31.5  T
   5    -29.2949912 -0.744272E-08  0.267E-04    2.63      81.6  T
     SCC iter.                  ...        0 min,  0.447 sec
     gradient                   ...        0 min,  0.014 sec
 * total energy  :   -28.8505282 Eh     change       -0.2570496E-04 Eh
   gradient norm :     0.0022998 Eh/α   predicted    -0.2012903E-04 ( -21.69%)
   displ. norm   :     0.1194947 α      lambda       -0.2807692E-04
   maximum displ.:     0.0567989 α      in ANC's #2, #1, #3, ...

........................................................................
.............................. CYCLE   34 ..............................
........................................................................
   1    -29.2948382 -0.292948E+02  0.283E-02    2.62       0.0  T
   2    -29.2948383 -0.890930E-07  0.170E-02    2.62       1.3  T
   3    -29.2948383  0.128449E-07  0.159E-03    2.62      13.7  T
   4    -29.2948383 -0.370634E-07  0.714E-04    2.62      30.6  T
   5    -29.2948383 -0.435830E-08  0.296E-04    2.62      73.8  T
     SCC iter.                  ...        0 min,  0.486 sec
     gradient                   ...        0 min,  0.200 sec
 * total energy  :   -28.8505434 Eh     change       -0.1523407E-04 Eh
   gradient norm :     0.0018347 Eh/α   predicted    -0.1424158E-04 (  -6.51%)
   displ. norm   :     0.0317975 α      lambda       -0.9609463E-05
   maximum displ.:     0.0163736 α      in ANC's #3, #1, #8, ...

........................................................................
.............................. CYCLE   35 ..............................
........................................................................
   1    -29.2959263 -0.292959E+02  0.130E-02    2.62       0.0  T
   2    -29.2959264 -0.994313E-07  0.764E-03    2.62       2.9  T
   3    -29.2959264  0.171277E-07  0.166E-03    2.62      13.1  T
   4    -29.2959264 -0.282618E-07  0.546E-04    2.62      39.9  T
   5    -29.2959264 -0.341811E-08  0.250E-04    2.62      87.4  T
     SCC iter.                  ...        0 min,  0.465 sec
     gradient                   ...        0 min,  0.023 sec
 * total energy  :   -28.8505494 Eh     change       -0.6029388E-05 Eh
   gradient norm :     0.0012749 Eh/α   predicted    -0.4808579E-05 ( -20.25%)
   displ. norm   :     0.0770871 α      lambda       -0.7810907E-05
   maximum displ.:     0.0307482 α      in ANC's #3, #4, #5, ...

........................................................................
.............................. CYCLE   36 ..............................
........................................................................
   1    -29.2953644 -0.292954E+02  0.186E-02    2.62       0.0  T
   2    -29.2953645 -0.473076E-07  0.112E-02    2.62       2.0  T
   3    -29.2953644  0.112392E-07  0.117E-03    2.62      18.7  T
   4    -29.2953645 -0.217590E-07  0.427E-04    2.62      51.0  T
   5    -29.2953645 -0.176903E-08  0.225E-04    2.62      97.1  T
     SCC iter.                  ...        0 min,  0.519 sec
     gradient                   ...        0 min,  0.027 sec
 * total energy  :   -28.8505561 Eh     change       -0.6656875E-05 Eh
   gradient norm :     0.0013972 Eh/α   predicted    -0.3917959E-05 ( -41.14%)
   displ. norm   :     0.0390692 α      lambda       -0.6473919E-05
   maximum displ.:     0.0189855 α      in ANC's #3, #1, #5, ...

........................................................................
.............................. CYCLE   37 ..............................
........................................................................
   1    -29.2953116 -0.292953E+02  0.111E-02    2.62       0.0  T
   2    -29.2953116 -0.205496E-07  0.665E-03    2.62       3.3  T
   3    -29.2953116  0.125986E-07  0.108E-03    2.62      20.3  T
   4    -29.2953116 -0.176446E-07  0.277E-04    2.62      78.9  T
   5    -29.2953116 -0.495330E-09  0.146E-04    2.62     149.7  T
     SCC iter.                  ...        0 min,  0.388 sec
     gradient                   ...        0 min,  0.029 sec
 * total energy  :   -28.8505633 Eh     change       -0.7180537E-05 Eh
   gradient norm :     0.0013581 Eh/α   predicted    -0.3240383E-05 ( -54.87%)
   displ. norm   :     0.0941577 α      lambda       -0.1314453E-04
   maximum displ.:     0.0532602 α      in ANC's #5, #1, #3, ...

........................................................................
.............................. CYCLE   38 ..............................
........................................................................
   1    -29.2954039 -0.292954E+02  0.252E-02    2.62       0.0  T
   2    -29.2954040 -0.643948E-07  0.151E-02    2.62       1.4  T
   3    -29.2954039  0.526975E-07  0.188E-03    2.62      11.6  T
   4    -29.2954040 -0.712233E-07  0.505E-04    2.62      43.2  T
   5    -29.2954040 -0.231805E-08  0.248E-04    2.62      88.1  T
     SCC iter.                  ...        0 min,  0.394 sec
     gradient                   ...        0 min,  0.036 sec
 * total energy  :   -28.8505736 Eh     change       -0.1031533E-04 Eh
   gradient norm :     0.0017935 Eh/α   predicted    -0.6598967E-05 ( -36.03%)
   displ. norm   :     0.0722273 α      lambda       -0.9011412E-05
   maximum displ.:     0.0427365 α      in ANC's #1, #2, #5, ...

........................................................................
.............................. CYCLE   39 ..............................
........................................................................
   1    -29.2955802 -0.292956E+02  0.234E-02    2.62       0.0  T
   2    -29.2955803 -0.926790E-07  0.141E-02    2.62       1.5  T
   3    -29.2955802  0.779632E-07  0.242E-03    2.62       9.0  T
   4    -29.2955803 -0.112703E-06  0.699E-04    2.62      31.2  T
   5    -29.2955803 -0.207901E-08  0.338E-04    2.62      64.5  T
     SCC iter.                  ...        0 min,  0.366 sec
     gradient                   ...        0 min,  0.030 sec
 * total energy  :   -28.8505793 Eh     change       -0.5739148E-05 Eh
   gradient norm :     0.0013293 Eh/α   predicted    -0.4520087E-05 ( -21.24%)
   displ. norm   :     0.0149650 α      lambda       -0.3046304E-05
   maximum displ.:     0.0091167 α      in ANC's #5, #2, #1, ...

........................................................................
.............................. CYCLE   40 ..............................
........................................................................
   1    -29.2957517 -0.292958E+02  0.656E-03    2.62       0.0  T
   2    -29.2957517 -0.117278E-07  0.389E-03    2.62       5.6  T
   3    -29.2957517  0.151221E-08  0.489E-04    2.62      44.6  T
   4    -29.2957517 -0.330421E-08  0.221E-04    2.62      98.9  T
     SCC iter.                  ...        0 min,  0.354 sec
     gradient                   ...        0 min,  0.014 sec
 * total energy  :   -28.8505814 Eh     change       -0.2123590E-05 Eh
   gradient norm :     0.0007560 Eh/α   predicted    -0.1527434E-05 ( -28.07%)
   displ. norm   :     0.0128637 α      lambda       -0.1482288E-05
   maximum displ.:     0.0082159 α      in ANC's #5, #2, #1, ...

........................................................................
.............................. CYCLE   41 ..............................
........................................................................
   1    -29.2956748 -0.292957E+02  0.510E-03    2.62       0.0  T
   2    -29.2956748 -0.374088E-08  0.305E-03    2.62       7.2  T
   3    -29.2956748 -0.189672E-09  0.241E-04    2.62      90.5  T
   4    -29.2956748 -0.559879E-09  0.134E-04    2.62     163.3  T
     SCC iter.                  ...        0 min,  0.328 sec
     gradient                   ...        0 min,  0.029 sec
 * total energy  :   -28.8505822 Eh     change       -0.7934206E-06 Eh
   gradient norm :     0.0006611 Eh/α   predicted    -0.7449346E-06 (  -6.11%)
   displ. norm   :     0.0078981 α      lambda       -0.7372468E-06
   maximum displ.:     0.0044066 α      in ANC's #2, #5, #1, ...

   *** GEOMETRY OPTIMIZATION CONVERGED AFTER 41 ITERATIONS ***

------------------------------------------------------------------------
 total energy gain   :        -0.0116578 Eh       -7.3154 kcal/mol
 total RMSD          :         0.8973422 a0        0.4749 Å
 total power (kW/mol):        -0.7465287 (step)   -1.2135 (real)
------------------------------------------------------------------------

 ANCopt (total)                0 d,  0 h,  0 min, 25.223 sec
 optimizer setup                ...        0 min,  0.000 sec (  0.001%)
 model hessian                  ...        0 min,  0.034 sec (  0.134%)
 ANC generation                 ...        0 min,  0.002 sec (  0.008%)
 coordinate transformation      ...        0 min,  0.001 sec (  0.003%)
 single point calculation       ...        0 min, 24.219 sec ( 96.021%)
 optimization log               ...        0 min,  0.072 sec (  0.285%)
 hessian update                 ...        0 min,  0.203 sec (  0.803%)
 rational function              ...        0 min,  0.688 sec (  2.727%)

================
 final structure:
================
21
 xtb: 6.5.1 (b24c23e)
C           -0.63867687773272        1.25987475777486        0.06104539549911
C           -0.03688009961787        0.03905408192895        0.07894824831727
C            1.36062460472876       -0.00386313384335        0.06333187752738
C            2.06563563887234        1.20255770924779        0.03553667760312
C            1.41185256965025        2.43690342780765       -0.00280479455459
C            0.01379314203928        2.45352573462362        0.01318126888821
H           -0.60121384367273       -0.88144873177093        0.10084926681533
H           -0.51087138872364        3.39687158618722       -0.01548258206516
C            2.17337994898196        3.72717674576223       -0.06800071332512
H            2.18869571594814        4.21039207463072        0.90975797863406
H            3.19724341177543        3.54235074315891       -0.38480289710349
H            1.70277982640241        4.40994193444516       -0.77262093987653
C            2.06741677862252       -1.32655551899188        0.06873799140534
H            3.09210194760148       -1.20495457199231       -0.27548269297926
H            2.08139449253846       -1.74750996465688        1.07514364906524
H            1.55644351394654       -2.03228491272193       -0.58309148650146
O            3.46006980297551        1.17250973023989        0.00140531739066
C            4.06291016396774        1.18299186237573        1.28116239764033
H            5.13796906047864        1.15081044893957        1.10852667396997
H            3.80790705408428        2.09266276107438        1.83568535942354
H            3.76092658713215        0.31318486577989        1.87259800422633

 Bond Distances (Angstroems)
 ---------------------------
C1-C2=1.3612         C1-C6=1.3612         C2-C1=1.3612         C2-C3=1.3983         C2-H7=1.0799         C3-C2=1.3983         
C3-C4=1.3976         C3-C13=1.4997        C4-C3=1.3976         C4-C5=1.3973         C4-O17=1.3952        C5-C4=1.3973         
C5-C6=1.3982         C5-C9=1.4997         C6-C1=1.3612         C6-C5=1.3982         C6-H8=1.0798         H7-C2=1.0799         
H8-C6=1.0798         C9-C5=1.4997         C9-H10=1.0908        C9-H11=1.0876        C9-H12=1.0882        H10-C9=1.0908        
H11-C9=1.0876        H12-C9=1.0882        C13-C3=1.4997        C13-H14=1.0878       C13-H15=1.0910       C13-H16=1.0881       
H14-C13=1.0878       H15-C13=1.0910       H16-C13=1.0881       O17-C4=1.3952        O17-C18=1.4147       C18-O17=1.4147       
C18-H19=1.0893       C18-H20=1.0955       C18-H21=1.0943       H19-C18=1.0893       H20-C18=1.0955       H21-C18=1.0943       
 C  H  Rav=1.0884 sigma=0.0047  Rmin=1.0798  Rmax=1.0955    11
 C  C  Rav=1.4141 sigma=0.0516  Rmin=1.3612  Rmax=1.4997     8
 O  C  Rav=1.4049 sigma=0.0097  Rmin=1.3952  Rmax=1.4147     2

 selected bond angles (degree)
 --------------------
C6-C1-C2=125.10                C3-C2-C1=117.99                H7-C2-C1=122.26                H7-C2-C3=119.76                
C4-C3-C2=118.55                C13-C3-C2=119.87               C13-C3-C4=121.58               C5-C4-C3=121.81                
O17-C4-C3=119.08               O17-C4-C5=119.08               C6-C5-C4=118.56                C9-C5-C4=121.58                
C9-C5-C6=119.87                C5-C6-C1=117.99                H8-C6-C1=122.28                H8-C6-C5=119.73                
H10-C9-C5=110.45               H11-C9-C5=110.15               H11-C9-H10=108.86              H12-C9-C5=110.39               
H12-C9-H10=107.97              H12-C9-H11=108.97              

 selected dihedral angles (degree)
 ---------------------------------
C3-C2-C1-C6=  0.81            H7-C2-C1-C6=181.03            C4-C3-C2-C1=  0.24            C4-C3-C2-H7=180.02            
C13-C3-C2-C1=180.59           C13-C3-C2-H7=  0.37           C5-C4-C3-C2=358.75            C5-C4-C3-C13=178.40           
O17-C4-C3-C2=180.86           O17-C4-C3-C13=  0.51          C6-C5-C4-C3=  1.24            C6-C5-C4-O17=179.12           
C9-C5-C4-C3=181.59            C9-C5-C4-O17=359.48           C5-C6-C1-C2=359.18            H8-C6-C1-C2=178.98            
C1-C6-C5-C4=359.79            C1-C6-C5-C9=179.44            H8-C6-C5-C4=179.98            H8-C6-C5-C9=359.63            
H10-C9-C5-C4=257.17           H10-C9-C5-C6= 77.53           H11-C9-C5-C4= 17.45           H11-C9-C5-C6=197.81           
H12-C9-C5-C4=137.84           H12-C9-C5-C6=318.20           
           -------------------------------------------------
          |                Final Singlepoint                |
           -------------------------------------------------

          ...................................................
          :                      SETUP                      :
          :.................................................:
          :  # basis functions                  51          :
          :  # atomic orbitals                  51          :
          :  # shells                           31          :
          :  # electrons                        53          :
          :  max. iterations                   250          :
          :  Hamiltonian                  GFN2-xTB          :
          :  restarted?                      false          :
          :  GBSA solvation                   true          :
          :  PC potential                    false          :
          :  electronic temp.          300.0000000     K    :
          :  accuracy                    1.0000000          :
          :  -> integral cutoff          0.2500000E+02      :
          :  -> integral neglect         0.1000000E-07      :
          :  -> SCF convergence          0.1000000E-05 Eh   :
          :  -> wf. convergence          0.1000000E-03 e    :
          :  Broyden damping             0.4000000          :
          ...................................................

 iter      E             dE          RMSdq      gap      omega  full diag
   1    -29.2956748 -0.292957E+02  0.611E-05    2.62       0.0  T
   2    -29.2956748 -0.650857E-11  0.387E-05    2.62     563.4  T
   3    -29.2956748 -0.344613E-12  0.223E-05    2.62     978.2  T

   *** convergence criteria satisfied after 3 iterations ***

         #    Occupation            Energy/Eh            Energy/eV
      -------------------------------------------------------------
         1        2.0000           -0.7018390             -19.0980
       ...           ...                  ...                  ...
        21        2.0000           -0.4532837             -12.3345
        22        2.0000           -0.4489623             -12.2169
        23        2.0000           -0.4385497             -11.9335
        24        2.0000           -0.4010968             -10.9144
        25        2.0000           -0.3921896             -10.6720
        26        2.0000           -0.3918967             -10.6641
        27        1.0000           -0.3219835              -8.7616 (HOMO)
        28                         -0.2256631              -6.1406 (LUMO)
        29                         -0.2135240              -5.8103
        30                         -0.0928701              -2.5271
        31                          0.0344470               0.9374
        32                          0.0909303               2.4743
       ...                                ...                  ...
        51                          0.6568401              17.8735
      -------------------------------------------------------------
                  HL-Gap            0.0963204 Eh            2.6210 eV
             Fermi-level           -0.3153817 Eh           -8.5820 eV

 SCC (total)                   0 d,  0 h,  0 min,  0.316 sec
 SCC setup                      ...        0 min,  0.002 sec (  0.718%)
 Dispersion                     ...        0 min,  0.000 sec (  0.035%)
 classical contributions        ...        0 min,  0.000 sec (  0.007%)
 integral evaluation            ...        0 min,  0.001 sec (  0.322%)
 iterations                     ...        0 min,  0.256 sec ( 80.976%)
 molecular gradient             ...        0 min,  0.056 sec ( 17.839%)
 printout                       ...        0 min,  0.000 sec (  0.080%)

         :::::::::::::::::::::::::::::::::::::::::::::::::::::
         ::                     SUMMARY                     ::
         :::::::::::::::::::::::::::::::::::::::::::::::::::::
         :: total energy             -28.850582239472 Eh    ::
         :: total w/o Gsasa/hb       -28.839012394881 Eh    ::
         :: gradient norm              0.000661169365 Eh/a0 ::
         :: HOMO-LUMO gap              2.621011907310 eV    ::
         ::.................................................::
         :: SCC energy               -29.295674778980 Eh    ::
         :: -> isotropic ES            0.021889649884 Eh    ::
         :: -> anisotropic ES          0.003794388192 Eh    ::
         :: -> anisotropic XC          0.012471972970 Eh    ::
         :: -> dispersion             -0.017324755290 Eh    ::
         :: -> Gsolv                  -0.013153364613 Eh    ::
         ::    -> Gelec               -0.001583520022 Eh    ::
         ::    -> Gsasa               -0.015718541952 Eh    ::
         ::    -> Ghb                  0.000000000000 Eh    ::
         ::    -> Gshift               0.004148697361 Eh    ::
         :: repulsion energy           0.444981940842 Eh    ::
         :: add. restraining           0.000000000000 Eh    ::
         :: total charge               0.000000000000 e     ::
         :::::::::::::::::::::::::::::::::::::::::::::::::::::

           -------------------------------------------------
          |                Property Printout                |
           -------------------------------------------------

    * Orbital Energies and Occupations

         #    Occupation            Energy/Eh            Energy/eV
      -------------------------------------------------------------
         1        2.0000           -0.7018390             -19.0980
       ...           ...                  ...                  ...
        15        2.0000           -0.4939944             -13.4423
        16        2.0000           -0.4888585             -13.3025
        17        2.0000           -0.4888171             -13.3014
        18        2.0000           -0.4741734             -12.9029
        19        2.0000           -0.4700772             -12.7915
        20        2.0000           -0.4546826             -12.3725
        21        2.0000           -0.4532837             -12.3345
        22        2.0000           -0.4489623             -12.2169
        23        2.0000           -0.4385497             -11.9335
        24        2.0000           -0.4010968             -10.9144
        25        2.0000           -0.3921896             -10.6720
        26        2.0000           -0.3918967             -10.6641
        27        1.0000           -0.3219835              -8.7616 (HOMO)
        28                         -0.2256631              -6.1406 (LUMO)
        29                         -0.2135240              -5.8103
        30                         -0.0928701              -2.5271
        31                          0.0344470               0.9374
        32                          0.0909303               2.4743
        33                          0.1179035               3.2083
        34                          0.1332444               3.6258
        35                          0.1475198               4.0142
        36                          0.1606947               4.3727
        37                          0.1667846               4.5384
        38                          0.1844533               5.0192
       ...                                ...                  ...
        51                          0.6568401              17.8735
      -------------------------------------------------------------
                  HL-Gap            0.0963204 Eh            2.6210 eV
             Fermi-level           -0.3153817 Eh           -8.5820 eV

     #   Z          covCN         q      C6AA      α(0)
     1   6 C        2.013    -0.077    33.136     9.297
     2   6 C        2.919    -0.039    28.971     8.826
     3   6 C        2.973    -0.001    28.040     8.686
     4   6 C        2.878     0.112    25.534     8.284
     5   6 C        2.973    -0.001    28.038     8.686
     6   6 C        2.919    -0.039    28.971     8.826
     7   1 H        0.926     0.048     2.342     2.393
     8   1 H        0.926     0.048     2.342     2.393
     9   6 C        3.757    -0.103    22.515     6.765
    10   1 H        0.924     0.050     2.321     2.383
    11   1 H        0.925     0.057     2.238     2.339
    12   1 H        0.925     0.049     2.330     2.387
    13   6 C        3.757    -0.103    22.511     6.765
    14   1 H        0.925     0.057     2.239     2.340
    15   1 H        0.924     0.050     2.323     2.383
    16   1 H        0.925     0.049     2.332     2.388
    17   8 O        1.702    -0.329    19.500     5.962
    18   6 C        3.652     0.045    20.118     6.442
    19   1 H        0.925     0.057     2.232     2.336
    20   1 H        0.924     0.034     2.528     2.487
    21   1 H        0.924     0.035     2.522     2.484

 Mol. C6AA /au·bohr⁶  :       4524.176037
 Mol. C8AA /au·bohr⁸  :     106218.125082
 Mol. α(0) /au        :        104.851836


Wiberg/Mayer (AO) data.
largest (>0.10) Wiberg bond orders for each atom

 ---------------------------------------------------------------------------
     #   Z sym  total        # sym  WBO       # sym  WBO       # sym  WBO
 ---------------------------------------------------------------------------
     1   6 C    3.102 --     6 C    1.471     2 C    1.471
     2   6 C    3.954 --     1 C    1.471     3 C    1.355     7 H    0.957
                             5 C    0.109
     3   6 C    3.932 --     4 C    1.378     2 C    1.355    13 C    1.021
                             6 C    0.110
     4   6 C    3.935 --     5 C    1.379     3 C    1.378    17 O    0.984
     5   6 C    3.932 --     4 C    1.379     6 C    1.354     9 C    1.021
                             2 C    0.109
     6   6 C    3.954 --     1 C    1.471     5 C    1.354     8 H    0.957
                             3 C    0.110
     7   1 H    0.985 --     2 C    0.957
     8   1 H    0.985 --     6 C    0.957
     9   6 C    3.984 --     5 C    1.021    11 H    0.978    12 H    0.977
                            10 H    0.967
    10   1 H    0.997 --     9 C    0.967
    11   1 H    0.993 --     9 C    0.978
    12   1 H    0.997 --     9 C    0.977
    13   6 C    3.984 --     3 C    1.021    14 H    0.978    16 H    0.977
                            15 H    0.967
    14   1 H    0.993 --    13 C    0.978
    15   1 H    0.997 --    13 C    0.967
    16   1 H    0.997 --    13 C    0.977
    17   8 O    2.079 --     4 C    0.984    18 C    0.972
    18   6 C    3.948 --    19 H    0.980    20 H    0.979    21 H    0.979
                            17 O    0.972
    19   1 H    0.995 --    18 C    0.980
    20   1 H    0.999 --    18 C    0.979
    21   1 H    0.999 --    18 C    0.979
 ---------------------------------------------------------------------------

Topologies differ in total number of bonds
Writing topology from bond orders to xtbtopo.mol

molecular dipole:
                 x           y           z       tot (Debye)
 q only:        0.228       0.004       0.459
   full:        0.357       0.003       0.580       1.731
molecular quadrupole (traceless):
                xx          xy          yy          xz          yz          zz
 q only:       -1.368       1.002       3.574       5.544       1.330      -2.206
  q+dip:       -2.119       1.550       6.914       6.151       1.590      -4.795
   full:       -2.497       1.523       4.858       6.568       1.696      -2.361

           -------------------------------------------------
          |                Geometry Summary                 |
           -------------------------------------------------

      molecular mass/u    :      135.1833763
   center of mass at/Å    :        1.7078203       1.2123716       0.1725238
  moments of inertia/u·Å² :        0.3056107E+03   0.3236688E+03   0.5890059E+03
rotational constants/cm⁻¹ :        0.5516049E-01   0.5208298E-01   0.2862048E-01

 * 19 selected distances

     #   Z          #   Z                                           value/Å
     1   6 C        2   6 C                                       1.3612066
     2   6 C        3   6 C                                       1.3982509
     3   6 C        4   6 C                                       1.3975925
     4   6 C        5   6 C                                       1.3973232
     1   6 C        6   6 C                                       1.3611800
     5   6 C        6   6 C                                       1.3982498
     2   6 C        7   1 H                                       1.0799435
     6   6 C        8   1 H                                       1.0798130 (min)
     9   6 C       10   1 H                                       1.0907538
     9   6 C       11   1 H                                       1.0875757
     9   6 C       12   1 H                                       1.0881740
    13   6 C       14   1 H                                       1.0877751
    13   6 C       15   1 H                                       1.0909861
    13   6 C       16   1 H                                       1.0881312
     4   6 C       17   8 O                                       1.3951756
    17   8 O       18   6 C                                       1.4146749 (max)
    18   6 C       19   1 H                                       1.0893074
    18   6 C       20   1 H                                       1.0954559
    18   6 C       21   1 H                                       1.0943284

 * 3 distinct bonds (by element types)

   Z      Z             #   av. dist./Å        max./Å        min./Å
   1 H    6 C          11     1.0883858     1.0954559     1.0798130
   6 C    6 C           6     1.3856338     1.3982509     1.3611800
   6 C    8 O           2     1.4049252     1.4146749     1.3951756


optimized geometry written to: xtbopt.xyz


           -------------------------------------------------
          | TOTAL ENERGY              -28.850582239472 Eh   |
          | GRADIENT NORM               0.000661169365 Eh/α |
          | HOMO-LUMO GAP               2.621011907310 eV   |
           -------------------------------------------------

------------------------------------------------------------------------
 * finished run on 2022/11/14 at 22:11:14.242     
------------------------------------------------------------------------
 total:
 * wall-time:     0 d,  0 h,  0 min, 28.604 sec
 *  cpu-time:     0 d,  0 h,  2 min, 43.266 sec
 * ratio c/w:     5.708 speedup
 SCF:
 * wall-time:     0 d,  0 h,  0 min,  2.874 sec
 *  cpu-time:     0 d,  0 h,  0 min,  9.641 sec
 * ratio c/w:     3.355 speedup
 ANC optimizer:
 * wall-time:     0 d,  0 h,  0 min, 25.553 sec
 *  cpu-time:     0 d,  0 h,  2 min, 32.828 sec
 * ratio c/w:     5.981 speedup

