90
 energy: -141.724043947800 gnorm: 0.000408821105 xtb: 6.6.1 (8d0f1dd)
Rh          -1.55313831974299        0.48794671537684        0.73458079876615
P           -1.06876402124201       -1.60959749045784        1.50082668523587
C            0.34633677327536       -1.57329337946055        2.63270605807831
C            0.86581188373048       -0.33567626492961        2.99681712849551
C            1.95822458933500       -0.26495832537407        3.84077750593909
C            2.52410274308737       -1.43085657198181        4.33206614880581
C            1.99851689465676       -2.66534734725808        3.98235271706707
C            0.91292359043128       -2.74327741696792        3.12989119270724
C           -2.40373867794227       -2.39976381714945        2.45773181537970
C           -2.28186723370083       -2.70718808524442        3.80798983990090
C           -3.35426192402493       -3.25104957888467        4.49508349758448
C           -4.55594663233128       -3.48276862819726        3.84795086516845
C           -4.69300336193891       -3.15766604733059        2.50721211046444
C           -3.62720202981438       -2.61008835463721        1.81852877586577
C           -0.58943478000155       -2.86849225239268        0.26921522232849
C           -1.46863198890197       -3.87010869144071       -0.13440070777182
C           -1.15601934141582       -4.67454236393363       -1.20696154466024
C            0.03008773014002       -4.50679179034374       -1.90794831342730
Cl           0.22629236792126       -5.49162318259612       -3.32116908277180
C            0.97043171567990       -3.56953725866703       -1.47578660023559
O            2.18200763235632       -3.29512342668403       -2.00708040387406
C            2.88182951906797       -4.22391127806961       -2.81348601235648
C            0.63314743852329       -2.73995891641453       -0.38490400587959
C            1.71389231847204       -1.82854332209017        0.07002611860023
C            1.71888484942988       -0.45917662178487       -0.18087254972663
C            2.85233861555913        0.28217767857824        0.14267270007079
C            3.92346674323810       -0.32591058086615        0.75711386954350
C            3.90034600912437       -1.67802969228407        1.07017262090047
Cl           5.26550492478806       -2.27164821997518        1.96055723516383
C            2.81295012330739       -2.46543232261009        0.68683094833462
O            2.62782979295771       -3.79091527841854        0.86984988325627
C            3.68965972726765       -4.67630764582005        1.16883525512783
P            0.17937992218329        0.34010050517606       -0.74799320137627
C           -0.29790413815116       -0.64610427779982       -2.19168659097650
C            0.62230160415518       -0.99117557469303       -3.17708786334940
C            0.21272730067671       -1.75620049970947       -4.25334679219459
C           -1.10335234963794       -2.18253612665389       -4.34602501653874
C           -2.02173421998962       -1.83586892200497       -3.36754781655740
C           -1.62084181796929       -1.06318088686461       -2.29393121707812
C            0.72793919919798        1.93572410627014       -1.43706883138512
C            1.20136523850582        2.90123841366079       -0.54632141735961
C            1.58261847223599        4.14886848543054       -1.00246982637975
C            1.47540330825762        4.45434322901547       -2.35056342023836
C            0.98025639087245        3.51129683622757       -3.23488348807014
C            0.60250474624987        2.25765892151235       -2.78352333877284
H            0.40292731756345        0.56903775663256        2.59849482472727
H            2.36938906765698        0.69343289880217        4.11929948782601
H            3.37709144875718       -1.37762073085511        4.99108520174296
H            2.43853558456313       -3.56945793824048        4.37580126860734
H            0.50757608841821       -3.70150388907044        2.83639871424505
H           -1.35117888680714       -2.52310016140763        4.32431621618584
H           -3.24953656798249       -3.49240353067847        5.54186702541545
H           -5.38784311026256       -3.90818092920302        4.38732607899963
H           -5.63257169641478       -3.32670253937079        2.00260250847146
H           -3.73449572310140       -2.34131009471099        0.77398295474358
H           -2.39311716289097       -4.03688094250365        0.39286694001462
H           -1.84632471769902       -5.43776292236656       -1.53062560575979
H            2.50564008143684       -4.23698614424147       -3.83785689281903
H            3.91293258703987       -3.86985262008116       -2.81800481917092
H            2.84743037434471       -5.23019452435377       -2.39332995487549
H            2.91132030613591        1.33118061864570       -0.09497938030330
H            4.79444447575344        0.25254211667195        1.02274794515946
H            4.00520862996478       -4.59466678613719        2.21033070173543
H            3.27857346189729       -5.67160077867068        0.99819071891111
H            4.54472373018372       -4.52107689821241        0.50902075279570
H            1.65031635447548       -0.66950274135667       -3.08642964673660
H            0.92138192126800       -2.02371130642532       -5.02271327183601
H           -1.41441309298697       -2.78642840403097       -5.18466297713037
H           -3.04586671397261       -2.16766807374283       -3.44668870759735
H           -2.32653273591526       -0.77828092898842       -1.51124164231907
H            1.26896677265414        2.66345190462560        0.50906107587960
H            1.95794715761469        4.88620418545595       -0.30858283241015
H            1.77008753594948        5.42885034102093       -2.70755484150808
H            0.88459075882673        3.75183582340060       -4.28272117195076
H            0.21052160360808        1.53151547544987       -3.48049110281860
C           -4.02180668857819        2.99030513681741        1.52405567846375
C           -2.63018799586729        2.66664994106505        2.09466297873368
C           -3.96935407413126        1.85043326768106        0.49219004941900
H           -4.07822223836022        3.97836862421978        1.06879695488415
H           -4.82253552433229        2.87105184165623        2.25297831630446
C           -2.78787979594830        1.17467919694241        2.38628075248838
C           -1.80606682372855        2.64631866065101        0.80828861409284
H           -2.25594758752656        3.28602111333080        2.90436294407939
C           -3.61401203524581        0.67543804474872        1.40192213089355
C           -2.62699220289200        2.14205170028011       -0.17792608004454
H           -4.82461846809831        1.71860016250833       -0.16391196393406
H           -2.57678322980237        0.72372099514335        3.34763488348875
H           -0.92174347991326        3.24956550936197        0.66309881477379
H           -4.19845162098136       -0.23170626560888        1.45143546130134
H           -2.49921941248580        2.25046938392994       -1.24754305492807
