 Entering Gaussian System, Link 0=g16
 Input=free_ligand_L2_SP.inp
 Output=free_ligand_L2_SP.log
 Initial command:
 /sw/arch/Centos8/EB_production/2021/software/Gaussian/g16.c01/l1.exe "/scratch-local/adarsh.3296431/Gau-3208625.inp" -scrdir="/scratch-local/adarsh.3296431/"
 Entering Link 1 = /sw/arch/Centos8/EB_production/2021/software/Gaussian/g16.c01/l1.exe PID=   3208629.
  
 Copyright (c) 1988-2019, Gaussian, Inc.  All Rights Reserved.
  
 This is part of the Gaussian(R) 16 program.  It is based on
 the Gaussian(R) 09 system (copyright 2009, Gaussian, Inc.),
 the Gaussian(R) 03 system (copyright 2003, Gaussian, Inc.),
 the Gaussian(R) 98 system (copyright 1998, Gaussian, Inc.),
 the Gaussian(R) 94 system (copyright 1995, Gaussian, Inc.),
 the Gaussian 92(TM) system (copyright 1992, Gaussian, Inc.),
 the Gaussian 90(TM) system (copyright 1990, Gaussian, Inc.),
 the Gaussian 88(TM) system (copyright 1988, Gaussian, Inc.),
 the Gaussian 86(TM) system (copyright 1986, Carnegie Mellon
 University), and the Gaussian 82(TM) system (copyright 1983,
 Carnegie Mellon University). Gaussian is a federally registered
 trademark of Gaussian, Inc.
  
 This software contains proprietary and confidential information,
 including trade secrets, belonging to Gaussian, Inc.
  
 This software is provided under written license and may be
 used, copied, transmitted, or stored only in accord with that
 written license.
  
 The following legend is applicable only to US Government
 contracts under FAR:
  
                    RESTRICTED RIGHTS LEGEND
  
 Use, reproduction and disclosure by the US Government is
 subject to restrictions as set forth in subparagraphs (a)
 and (c) of the Commercial Computer Software - Restricted
 Rights clause in FAR 52.227-19.
  
 Gaussian, Inc.
 340 Quinnipiac St., Bldg. 40, Wallingford CT 06492
  
  
 ---------------------------------------------------------------
 Warning -- This program may not be used in any manner that
 competes with the business of Gaussian, Inc. or will provide
 assistance to any competitor of Gaussian, Inc.  The licensee
 of this program is prohibited from giving any competitor of
 Gaussian, Inc. access to this program.  By using this program,
 the user acknowledges that Gaussian, Inc. is engaged in the
 business of creating and licensing software in the field of
 computational chemistry and represents and warrants to the
 licensee that it is not a competitor of Gaussian, Inc. and that
 it will not use this program in any manner prohibited above.
 ---------------------------------------------------------------
  

 Cite this work as:
 Gaussian 16, Revision C.01,
 M. J. Frisch, G. W. Trucks, H. B. Schlegel, G. E. Scuseria, 
 M. A. Robb, J. R. Cheeseman, G. Scalmani, V. Barone, 
 G. A. Petersson, H. Nakatsuji, X. Li, M. Caricato, A. V. Marenich, 
 J. Bloino, B. G. Janesko, R. Gomperts, B. Mennucci, H. P. Hratchian, 
 J. V. Ortiz, A. F. Izmaylov, J. L. Sonnenberg, D. Williams-Young, 
 F. Ding, F. Lipparini, F. Egidi, J. Goings, B. Peng, A. Petrone, 
 T. Henderson, D. Ranasinghe, V. G. Zakrzewski, J. Gao, N. Rega, 
 G. Zheng, W. Liang, M. Hada, M. Ehara, K. Toyota, R. Fukuda, 
 J. Hasegawa, M. Ishida, T. Nakajima, Y. Honda, O. Kitao, H. Nakai, 
 T. Vreven, K. Throssell, J. A. Montgomery, Jr., J. E. Peralta, 
 F. Ogliaro, M. J. Bearpark, J. J. Heyd, E. N. Brothers, K. N. Kudin, 
 V. N. Staroverov, T. A. Keith, R. Kobayashi, J. Normand, 
 K. Raghavachari, A. P. Rendell, J. C. Burant, S. S. Iyengar, 
 J. Tomasi, M. Cossi, J. M. Millam, M. Klene, C. Adamo, R. Cammi, 
 J. W. Ochterski, R. L. Martin, K. Morokuma, O. Farkas, 
 J. B. Foresman, and D. J. Fox, Gaussian, Inc., Wallingford CT, 2019.
 
 ******************************************
 Gaussian 16:  ES64L-G16RevC.01  3-Jul-2019
                12-Aug-2023 
 ******************************************
 %nprocshared=32
 Will use up to   32 processors via shared memory.
 %mem=30GB
 %chk=free_ligand_L2.chk
 ----------------------------------------------------------------------
 #p pop=nbo NMR pbe1pbe/def2svpp empiricaldispersion=gd3bj integral=gri
 d=ultrafinegrid scf=(xqc,maxconventionalcycles=90) nosymm
 ----------------------------------------------------------------------
 1/38=1,172=1/1;
 2/12=2,15=1,17=6,18=5,40=1/2;
 3/5=43,7=202,11=2,25=1,30=1,74=-13,75=-5,124=41/1,2,3,8;
 4//1;
 5/5=2,8=3,13=1,38=5,85=90/2,8;
 8/6=1,10=90,11=11/1;
 10/13=100,31=1,45=16/2;
 6/7=2,8=2,9=2,10=2,28=1,40=1,64=1/1,7;
 99/9=1/99;
 Leave Link    1 at Sat Aug 12 03:38:57 2023, MaxMem=  4026531840 cpu:              24.6 elap:               0.8
 (Enter /sw/arch/Centos8/EB_production/2021/software/Gaussian/g16.c01/l101.exe)
 ----
 Cisa
 ----
 Symbolic Z-matrix:
 Charge =  0 Multiplicity = 1
 C                    -3.57383  -0.87738  -1.27068 
 C                    -4.29526  -1.37863  -0.14774 
 C                    -5.12858  -0.33359   0.34264 
 C                    -4.92124   0.81485  -0.47321 
 C                    -3.96423   0.47478  -1.47261 
 H                    -2.8462   -1.42826  -1.86588 
 H                    -4.22025  -2.38097   0.27093 
 H                    -5.78662  -0.39222   1.20991 
 H                    -5.3955    1.78782  -0.34243 
 H                    -3.59366   1.13432  -2.25723 
 Fe                   -3.16734   0.2378    0.41018 
 C                    -2.3691    1.92937   1.2225 
 C                    -1.35814   1.18941   0.53444 
 C                    -1.29571  -0.11064   1.15006 
 C                    -2.27504  -0.15485   2.1975 
 C                    -2.92429   1.10693   2.2431 
 H                    -2.70065   2.93882   0.98413 
 H                    -2.47865  -1.01042   2.84021 
 H                    -3.73954   1.38324   2.91158 
 C                    -0.52658   1.67166  -0.62348 
 H                    -0.51797   0.86127  -1.3743 
 P                     0.01743  -1.29401   0.81118 
 C                    -1.18462   2.88976  -1.27185 
 H                    -0.7712    3.11101  -2.26419 
 H                    -2.25544   2.66994  -1.40718 
 H                    -1.10807   3.79768  -0.65736 
 P                     1.32375   1.75074  -0.17206 
 C                     2.13693   2.64502  -1.64578 
 C                     1.49018   2.76994   1.42545 
 C                     0.55917   3.98174   1.48498 
 H                    -0.49917   3.68287   1.48951 
 H                     0.74787   4.52453   2.42953 
 H                     0.72762   4.69107   0.6606 
 C                     2.93551   3.24076   1.60617 
 H                     3.03266   3.68421   2.61353 
 H                     3.65537   2.4084    1.54418 
 H                     3.2229    4.01888   0.88277 
 C                     1.16136   1.82951   2.59275 
 H                     1.32373   2.36886   3.54418 
 H                     0.11364   1.49387   2.57292 
 H                     1.8191    0.93926   2.58613 
 C                     1.68921   1.8679   -2.89304 
 H                     0.62274   1.99916  -3.13054 
 H                     2.26458   2.22108  -3.76766 
 H                     1.88213   0.78513  -2.77896 
 C                     3.66701   2.55266  -1.58354 
 H                     4.09458   3.03333  -0.69348 
 H                     4.03174   1.52128  -1.63083 
 H                     4.07544   3.08081  -2.46396 
 C                     1.79941   4.1358   -1.7705 
 H                     2.20912   4.50672  -2.72789 
 H                     0.72717   4.36253  -1.76473 
 H                     2.27704   4.72349  -0.97024 
 C                    -0.57137  -2.40684  -0.5064 
 C                    -1.59111  -3.3395   -0.27816 
 C                    -0.02692  -2.27939  -1.78934 
 C                    -2.05579  -4.13545  -1.32181 
 H                    -2.02563  -3.44211   0.72019 
 C                    -0.50529  -3.06582  -2.83744 
 H                     0.78326  -1.55955  -1.95601 
 C                    -1.51801  -3.99555  -2.60323 
 H                    -2.84937  -4.86541  -1.13819 
 H                    -0.08014  -2.9577   -3.83925 
 H                    -1.89021  -4.6176   -3.42222 
 C                     0.1175   -2.31239   2.32418 
 C                     0.31357  -3.69832   2.26951 
 C                     0.17202  -1.66787   3.5703 
 C                     0.54209  -4.42624   3.43774 
 H                     0.28331  -4.22478   1.3122 
 C                     0.39823  -2.39782   4.73388 
 H                     0.0374   -0.58513   3.63401 
 C                     0.58364  -3.78009   4.67117 
 H                     0.68661  -5.50871   3.37885 
 H                     0.43055  -1.88227   5.69791 
 H                     0.76085  -4.35262   5.58595 
 
 ITRead=  0  0  0  0  0  0  0  0  0  0  0  0  0  0  0  0  0  0  0  0
 ITRead=  0  0  0  0  0  0  0  0  0  0  0  0  0  0  0  0  0  0  0  0
 ITRead=  0  0  0  0  0  0  0  0  0  0  0  0  0  0  0  0  0  0  0  0
 ITRead=  0  0  0  0  0  0  0  0  0  0  0  0  0  0  0
 MicOpt= -1 -1 -1 -1 -1 -1 -1 -1 -1 -1 -1 -1 -1 -1 -1 -1 -1 -1 -1 -1
 MicOpt= -1 -1 -1 -1 -1 -1 -1 -1 -1 -1 -1 -1 -1 -1 -1 -1 -1 -1 -1 -1
 MicOpt= -1 -1 -1 -1 -1 -1 -1 -1 -1 -1 -1 -1 -1 -1 -1 -1 -1 -1 -1 -1
 MicOpt= -1 -1 -1 -1 -1 -1 -1 -1 -1 -1 -1 -1 -1 -1 -1
 NAtoms=     75 NQM=       75 NQMF=       0 NMMI=      0 NMMIF=      0
                NMic=       0 NMicF=      0.
                    Isotopes and Nuclear Properties:
 (Nuclear quadrupole moments (NQMom) in fm**2, nuclear magnetic moments (NMagM)
  in nuclear magnetons)

  Atom         1           2           3           4           5           6           7           8           9          10
 IAtWgt=          12          12          12          12          12           1           1           1           1           1
 AtmWgt=  12.0000000  12.0000000  12.0000000  12.0000000  12.0000000   1.0078250   1.0078250   1.0078250   1.0078250   1.0078250
 NucSpn=           0           0           0           0           0           1           1           1           1           1
 AtZEff=  -0.0000000  -0.0000000  -0.0000000  -0.0000000  -0.0000000  -0.0000000  -0.0000000  -0.0000000  -0.0000000  -0.0000000
 NQMom=    0.0000000   0.0000000   0.0000000   0.0000000   0.0000000   0.0000000   0.0000000   0.0000000   0.0000000   0.0000000
 NMagM=    0.0000000   0.0000000   0.0000000   0.0000000   0.0000000   2.7928460   2.7928460   2.7928460   2.7928460   2.7928460
 AtZNuc=   6.0000000   6.0000000   6.0000000   6.0000000   6.0000000   1.0000000   1.0000000   1.0000000   1.0000000   1.0000000

  Atom        11          12          13          14          15          16          17          18          19          20
 IAtWgt=          56          12          12          12          12          12           1           1           1          12
 AtmWgt=  55.9349393  12.0000000  12.0000000  12.0000000  12.0000000  12.0000000   1.0078250   1.0078250   1.0078250  12.0000000
 NucSpn=           0           0           0           0           0           0           1           1           1           0
 AtZEff=  -0.0000000  -0.0000000  -0.0000000  -0.0000000  -0.0000000  -0.0000000  -0.0000000  -0.0000000  -0.0000000  -0.0000000
 NQMom=    0.0000000   0.0000000   0.0000000   0.0000000   0.0000000   0.0000000   0.0000000   0.0000000   0.0000000   0.0000000
 NMagM=    0.0000000   0.0000000   0.0000000   0.0000000   0.0000000   0.0000000   2.7928460   2.7928460   2.7928460   0.0000000
 AtZNuc=  26.0000000   6.0000000   6.0000000   6.0000000   6.0000000   6.0000000   1.0000000   1.0000000   1.0000000   6.0000000

  Atom        21          22          23          24          25          26          27          28          29          30
 IAtWgt=           1          31          12           1           1           1          31          12          12          12
 AtmWgt=   1.0078250  30.9737634  12.0000000   1.0078250   1.0078250   1.0078250  30.9737634  12.0000000  12.0000000  12.0000000
 NucSpn=           1           1           0           1           1           1           1           0           0           0
 AtZEff=  -0.0000000  -0.0000000  -0.0000000  -0.0000000  -0.0000000  -0.0000000  -0.0000000  -0.0000000  -0.0000000  -0.0000000
 NQMom=    0.0000000   0.0000000   0.0000000   0.0000000   0.0000000   0.0000000   0.0000000   0.0000000   0.0000000   0.0000000
 NMagM=    2.7928460   1.1316000   0.0000000   2.7928460   2.7928460   2.7928460   1.1316000   0.0000000   0.0000000   0.0000000
 AtZNuc=   1.0000000  15.0000000   6.0000000   1.0000000   1.0000000   1.0000000  15.0000000   6.0000000   6.0000000   6.0000000

  Atom        31          32          33          34          35          36          37          38          39          40
 IAtWgt=           1           1           1          12           1           1           1          12           1           1
 AtmWgt=   1.0078250   1.0078250   1.0078250  12.0000000   1.0078250   1.0078250   1.0078250  12.0000000   1.0078250   1.0078250
 NucSpn=           1           1           1           0           1           1           1           0           1           1
 AtZEff=  -0.0000000  -0.0000000  -0.0000000  -0.0000000  -0.0000000  -0.0000000  -0.0000000  -0.0000000  -0.0000000  -0.0000000
 NQMom=    0.0000000   0.0000000   0.0000000   0.0000000   0.0000000   0.0000000   0.0000000   0.0000000   0.0000000   0.0000000
 NMagM=    2.7928460   2.7928460   2.7928460   0.0000000   2.7928460   2.7928460   2.7928460   0.0000000   2.7928460   2.7928460
 AtZNuc=   1.0000000   1.0000000   1.0000000   6.0000000   1.0000000   1.0000000   1.0000000   6.0000000   1.0000000   1.0000000

  Atom        41          42          43          44          45          46          47          48          49          50
 IAtWgt=           1          12           1           1           1          12           1           1           1          12
 AtmWgt=   1.0078250  12.0000000   1.0078250   1.0078250   1.0078250  12.0000000   1.0078250   1.0078250   1.0078250  12.0000000
 NucSpn=           1           0           1           1           1           0           1           1           1           0
 AtZEff=  -0.0000000  -0.0000000  -0.0000000  -0.0000000  -0.0000000  -0.0000000  -0.0000000  -0.0000000  -0.0000000  -0.0000000
 NQMom=    0.0000000   0.0000000   0.0000000   0.0000000   0.0000000   0.0000000   0.0000000   0.0000000   0.0000000   0.0000000
 NMagM=    2.7928460   0.0000000   2.7928460   2.7928460   2.7928460   0.0000000   2.7928460   2.7928460   2.7928460   0.0000000
 AtZNuc=   1.0000000   6.0000000   1.0000000   1.0000000   1.0000000   6.0000000   1.0000000   1.0000000   1.0000000   6.0000000

  Atom        51          52          53          54          55          56          57          58          59          60
 IAtWgt=           1           1           1          12          12          12          12           1          12           1
 AtmWgt=   1.0078250   1.0078250   1.0078250  12.0000000  12.0000000  12.0000000  12.0000000   1.0078250  12.0000000   1.0078250
 NucSpn=           1           1           1           0           0           0           0           1           0           1
 AtZEff=  -0.0000000  -0.0000000  -0.0000000  -0.0000000  -0.0000000  -0.0000000  -0.0000000  -0.0000000  -0.0000000  -0.0000000
 NQMom=    0.0000000   0.0000000   0.0000000   0.0000000   0.0000000   0.0000000   0.0000000   0.0000000   0.0000000   0.0000000
 NMagM=    2.7928460   2.7928460   2.7928460   0.0000000   0.0000000   0.0000000   0.0000000   2.7928460   0.0000000   2.7928460
 AtZNuc=   1.0000000   1.0000000   1.0000000   6.0000000   6.0000000   6.0000000   6.0000000   1.0000000   6.0000000   1.0000000

  Atom        61          62          63          64          65          66          67          68          69          70
 IAtWgt=          12           1           1           1          12          12          12          12           1          12
 AtmWgt=  12.0000000   1.0078250   1.0078250   1.0078250  12.0000000  12.0000000  12.0000000  12.0000000   1.0078250  12.0000000
 NucSpn=           0           1           1           1           0           0           0           0           1           0
 AtZEff=  -0.0000000  -0.0000000  -0.0000000  -0.0000000  -0.0000000  -0.0000000  -0.0000000  -0.0000000  -0.0000000  -0.0000000
 NQMom=    0.0000000   0.0000000   0.0000000   0.0000000   0.0000000   0.0000000   0.0000000   0.0000000   0.0000000   0.0000000
 NMagM=    0.0000000   2.7928460   2.7928460   2.7928460   0.0000000   0.0000000   0.0000000   0.0000000   2.7928460   0.0000000
 AtZNuc=   6.0000000   1.0000000   1.0000000   1.0000000   6.0000000   6.0000000   6.0000000   6.0000000   1.0000000   6.0000000

  Atom        71          72          73          74          75
 IAtWgt=           1          12           1           1           1
 AtmWgt=   1.0078250  12.0000000   1.0078250   1.0078250   1.0078250
 NucSpn=           1           0           1           1           1
 AtZEff=  -0.0000000  -0.0000000  -0.0000000  -0.0000000  -0.0000000
 NQMom=    0.0000000   0.0000000   0.0000000   0.0000000   0.0000000
 NMagM=    2.7928460   0.0000000   2.7928460   2.7928460   2.7928460
 AtZNuc=   1.0000000   6.0000000   1.0000000   1.0000000   1.0000000
 Leave Link  101 at Sat Aug 12 03:38:57 2023, MaxMem=  4026531840 cpu:               4.4 elap:               0.2
 (Enter /sw/arch/Centos8/EB_production/2021/software/Gaussian/g16.c01/l202.exe)
 Symmetry turned off by external request.
 Stoichiometry    C32H40FeP2
 Framework group  C1[X(C32H40FeP2)]
 Deg. of freedom   219
 Full point group                 C1      NOp   1
                          Input orientation:                          
 ---------------------------------------------------------------------
 Center     Atomic      Atomic             Coordinates (Angstroms)
 Number     Number       Type             X           Y           Z
 ---------------------------------------------------------------------
      1          6           0       -3.573830   -0.877380   -1.270680
      2          6           0       -4.295260   -1.378630   -0.147740
      3          6           0       -5.128580   -0.333590    0.342640
      4          6           0       -4.921240    0.814850   -0.473210
      5          6           0       -3.964230    0.474780   -1.472610
      6          1           0       -2.846200   -1.428260   -1.865880
      7          1           0       -4.220250   -2.380970    0.270930
      8          1           0       -5.786620   -0.392220    1.209910
      9          1           0       -5.395500    1.787820   -0.342430
     10          1           0       -3.593660    1.134320   -2.257230
     11         26           0       -3.167340    0.237800    0.410180
     12          6           0       -2.369100    1.929370    1.222500
     13          6           0       -1.358140    1.189410    0.534440
     14          6           0       -1.295710   -0.110640    1.150060
     15          6           0       -2.275040   -0.154850    2.197500
     16          6           0       -2.924290    1.106930    2.243100
     17          1           0       -2.700650    2.938820    0.984130
     18          1           0       -2.478650   -1.010420    2.840210
     19          1           0       -3.739540    1.383240    2.911580
     20          6           0       -0.526580    1.671660   -0.623480
     21          1           0       -0.517970    0.861270   -1.374300
     22         15           0        0.017430   -1.294010    0.811180
     23          6           0       -1.184620    2.889760   -1.271850
     24          1           0       -0.771200    3.111010   -2.264190
     25          1           0       -2.255440    2.669940   -1.407180
     26          1           0       -1.108070    3.797680   -0.657360
     27         15           0        1.323750    1.750740   -0.172060
     28          6           0        2.136930    2.645020   -1.645780
     29          6           0        1.490180    2.769940    1.425450
     30          6           0        0.559170    3.981740    1.484980
     31          1           0       -0.499170    3.682870    1.489510
     32          1           0        0.747870    4.524530    2.429530
     33          1           0        0.727620    4.691070    0.660600
     34          6           0        2.935510    3.240760    1.606170
     35          1           0        3.032660    3.684210    2.613530
     36          1           0        3.655370    2.408400    1.544180
     37          1           0        3.222900    4.018880    0.882770
     38          6           0        1.161360    1.829510    2.592750
     39          1           0        1.323730    2.368860    3.544180
     40          1           0        0.113640    1.493870    2.572920
     41          1           0        1.819100    0.939260    2.586130
     42          6           0        1.689210    1.867900   -2.893040
     43          1           0        0.622740    1.999160   -3.130540
     44          1           0        2.264580    2.221080   -3.767660
     45          1           0        1.882130    0.785130   -2.778960
     46          6           0        3.667010    2.552660   -1.583540
     47          1           0        4.094580    3.033330   -0.693480
     48          1           0        4.031740    1.521280   -1.630830
     49          1           0        4.075440    3.080810   -2.463960
     50          6           0        1.799410    4.135800   -1.770500
     51          1           0        2.209120    4.506720   -2.727890
     52          1           0        0.727170    4.362530   -1.764730
     53          1           0        2.277040    4.723490   -0.970240
     54          6           0       -0.571370   -2.406840   -0.506400
     55          6           0       -1.591110   -3.339500   -0.278160
     56          6           0       -0.026920   -2.279390   -1.789340
     57          6           0       -2.055790   -4.135450   -1.321810
     58          1           0       -2.025630   -3.442110    0.720190
     59          6           0       -0.505290   -3.065820   -2.837440
     60          1           0        0.783260   -1.559550   -1.956010
     61          6           0       -1.518010   -3.995550   -2.603230
     62          1           0       -2.849370   -4.865410   -1.138190
     63          1           0       -0.080140   -2.957700   -3.839250
     64          1           0       -1.890210   -4.617600   -3.422220
     65          6           0        0.117500   -2.312390    2.324180
     66          6           0        0.313570   -3.698320    2.269510
     67          6           0        0.172020   -1.667870    3.570300
     68          6           0        0.542090   -4.426240    3.437740
     69          1           0        0.283310   -4.224780    1.312200
     70          6           0        0.398230   -2.397820    4.733880
     71          1           0        0.037400   -0.585130    3.634010
     72          6           0        0.583640   -3.780090    4.671170
     73          1           0        0.686610   -5.508710    3.378850
     74          1           0        0.430550   -1.882270    5.697910
     75          1           0        0.760850   -4.352620    5.585950
 ---------------------------------------------------------------------
 Rotational constants (GHZ):           0.1250015           0.0946517           0.0823386
 Leave Link  202 at Sat Aug 12 03:38:57 2023, MaxMem=  4026531840 cpu:               0.1 elap:               0.0
 (Enter /sw/arch/Centos8/EB_production/2021/software/Gaussian/g16.c01/l301.exe)
 Standard basis: def2SVPP (5D, 7F)
 Ernie: Thresh=  0.10000D-02 Tol=  0.10000D-05 Strict=F.
   588 basis functions,  1105 primitive gaussians,   624 cartesian basis functions
   144 alpha electrons      144 beta electrons
       nuclear repulsion energy      5133.1752418614 Hartrees.
 IExCor= 1009 DFT=T Ex+Corr=PBE1PBE ExCW=0 ScaHFX=  0.250000
 ScaDFX=  0.750000  0.750000  1.000000  1.000000 ScalE2=  1.000000  1.000000
 IRadAn=      5 IRanWt=     -1 IRanGd=            0 ICorTp=0 IEmpDi=141
 NAtoms=   75 NActive=   75 NUniq=   75 SFac= 1.00D+00 NAtFMM=   60 NAOKFM=T Big=T
 Integral buffers will be    131072 words long.
 Raffenetti 2 integral format.
 Two-electron integral symmetry is turned off.
 R6Disp:  Grimme-D3(BJ) Dispersion energy=       -0.1166905035 Hartrees.
 Nuclear repulsion after empirical dispersion term =     5133.0585513579 Hartrees.
 Leave Link  301 at Sat Aug 12 03:38:57 2023, MaxMem=  4026531840 cpu:               0.8 elap:               0.0
 (Enter /sw/arch/Centos8/EB_production/2021/software/Gaussian/g16.c01/l302.exe)
 NPDir=0 NMtPBC=     1 NCelOv=     1 NCel=       1 NClECP=     1 NCelD=      1
         NCelK=      1 NCelE2=     1 NClLst=     1 CellRange=     0.0.
 One-electron integrals computed using PRISM.
   1 Symmetry operations used in ECPInt.
 ECPInt:  NShTT=   44551 NPrTT=  185758 LenC2=   40270 LenP2D=  107419.
 LDataN:  DoStor=T MaxTD1= 4 Len=   56
 NBasis=   588 RedAO= T EigKep=  2.74D-04  NBF=   588
 NBsUse=   588 1.00D-06 EigRej= -1.00D+00 NBFU=   588
 Precomputing XC quadrature grid using
 IXCGrd= 4 IRadAn=           5 IRanWt=          -1 IRanGd=           0 AccXCQ= 0.00D+00.
 Generated NRdTot=       0 NPtTot=           0 NUsed=           0 NTot=          32
 NSgBfM=   612   612   612   612   612 MxSgAt=    75 MxSgA2=    75.
 Leave Link  302 at Sat Aug 12 03:38:58 2023, MaxMem=  4026531840 cpu:              27.5 elap:               0.9
 (Enter /sw/arch/Centos8/EB_production/2021/software/Gaussian/g16.c01/l303.exe)
 DipDrv:  MaxL=1.
 Leave Link  303 at Sat Aug 12 03:38:58 2023, MaxMem=  4026531840 cpu:               2.6 elap:               0.1
 (Enter /sw/arch/Centos8/EB_production/2021/software/Gaussian/g16.c01/l308.exe)
 Leave Link  308 at Sat Aug 12 03:38:58 2023, MaxMem=  4026531840 cpu:               3.4 elap:               0.1
 (Enter /sw/arch/Centos8/EB_production/2021/software/Gaussian/g16.c01/l401.exe)
 ExpMin= 3.37D-02 ExpMax= 6.09D+04 ExpMxC= 9.15D+03 IAcc=3 IRadAn=         5 AccDes= 0.00D+00
 Harris functional with IExCor= 1009 and IRadAn=       5 diagonalized for initial guess.
 HarFok:  IExCor= 1009 AccDes= 0.00D+00 IRadAn=         5 IDoV= 1 UseB2=F ITyADJ=14
 ICtDFT=  3500011 ScaDFX=  1.000000  1.000000  1.000000  1.000000
 FoFCou: FMM=F IPFlag=           0 FMFlag=      100000 FMFlg1=        2001
         NFxFlg=           0 DoJE=T BraDBF=F KetDBF=T FulRan=T
         wScrn=  0.000000 ICntrl=       500 IOpCl=  0 I1Cent=   200000004 NGrid=           0
         NMat0=    1 NMatS0=      1 NMatT0=    0 NMatD0=    1 NMtDS0=    0 NMtDT0=    0
 Symmetry not used in FoFCou.
 Harris En= -3187.05464776317    
 JPrj=0 DoOrth=F DoCkMO=F.
 Leave Link  401 at Sat Aug 12 03:39:00 2023, MaxMem=  4026531840 cpu:              69.3 elap:               2.2
 (Enter /sw/arch/Centos8/EB_production/2021/software/Gaussian/g16.c01/l502.exe)
 Two-electron integral symmetry not used.
 Closed shell SCF:
 Using DIIS extrapolation, IDIIS=  1040.
 NGot=  4026531840 LenX=  4025724884 LenY=  4025334884
 Requested convergence on RMS density matrix=1.00D-08 within  90 cycles.
 Requested convergence on MAX density matrix=1.00D-06.
 Requested convergence on             energy=1.00D-06.
 No special actions if energy rises.
 Fock matrices will be formed incrementally for  20 cycles.

 Cycle   1  Pass 1  IDiag  1:
 FoFJK:  IHMeth= 1 ICntrl=       0 DoSepK=F KAlg= 0 I1Cent=           0 FoldK=F
 IRaf= 990000000 NMat=       1 IRICut=       1 DoRegI=T DoRafI=F ISym2E= 0 IDoP0=0 IntGTp=1.
 FoFCou: FMM=T IPFlag=           0 FMFlag=      100000 FMFlg1=        2001
         NFxFlg=           0 DoJE=F BraDBF=F KetDBF=F FulRan=T
         wScrn=  0.000000 ICntrl=         0 IOpCl=  0 I1Cent=           0 NGrid=           0
         NMat0=    1 NMatS0=      1 NMatT0=    0 NMatD0=    1 NMtDS0=    0 NMtDT0=    0
 Symmetry not used in FoFCou.
 FMM levels:  10  Number of levels for PrismC:   9
 E= -3185.79798987785    
 DIIS: error= 3.04D-02 at cycle   1 NSaved=   1.
 NSaved= 1 IEnMin= 1 EnMin= -3185.79798987785     IErMin= 1 ErrMin= 3.04D-02
 ErrMax= 3.04D-02  0.00D+00 EMaxC= 1.00D-01 BMatC= 8.52D-01 BMatP= 8.52D-01
 IDIUse=3 WtCom= 6.96D-01 WtEn= 3.04D-01
 Coeff-Com:  0.100D+01
 Coeff-En:   0.100D+01
 Coeff:      0.100D+01
 Gap=     0.210 Goal=   None    Shift=    0.000
 GapD=    0.210 DampG=1.000 DampE=0.250 DampFc=0.2500 IDamp=-1.
 Damping current iteration by 2.50D-01
 RMSDP=4.62D-03 MaxDP=2.01D-01              OVMax= 1.79D-01

 Cycle   2  Pass 1  IDiag  1:
 RMSU=  1.09D-03    CP:  9.79D-01
 E= -3186.11749952402     Delta-E=       -0.319509646168 Rises=F Damp=T
 DIIS: error= 1.47D-02 at cycle   2 NSaved=   2.
 NSaved= 2 IEnMin= 2 EnMin= -3186.11749952402     IErMin= 2 ErrMin= 1.47D-02
 ErrMax= 1.47D-02  0.00D+00 EMaxC= 1.00D-01 BMatC= 2.12D-01 BMatP= 8.52D-01
 IDIUse=3 WtCom= 8.53D-01 WtEn= 1.47D-01
 Coeff-Com: -0.566D+00 0.157D+01
 Coeff-En:   0.000D+00 0.100D+01
 Coeff:     -0.483D+00 0.148D+01
 Gap=     0.270 Goal=   None    Shift=    0.000
 RMSDP=4.39D-03 MaxDP=3.36D-01 DE=-3.20D-01 OVMax= 4.36D-01

 Cycle   3  Pass 1  IDiag  1:
 RMSU=  4.34D-03    CP:  9.76D-01  1.64D+00
 E= -3185.11370097074     Delta-E=        1.003798553273 Rises=F Damp=F
 DIIS: error= 1.10D-01 at cycle   3 NSaved=   3.
 NSaved= 3 IEnMin= 2 EnMin= -3186.11749952402     IErMin= 2 ErrMin= 1.47D-02
 ErrMax= 1.10D-01  0.00D+00 EMaxC= 1.00D-01 BMatC= 2.52D+00 BMatP= 2.12D-01
 IDIUse=2 WtCom= 0.00D+00 WtEn= 1.00D+00
 Coeff-En:   0.000D+00 0.786D+00 0.214D+00
 Coeff:      0.000D+00 0.786D+00 0.214D+00
 Gap=     0.352 Goal=   None    Shift=    0.000
 RMSDP=5.94D-03 MaxDP=3.80D-01 DE= 1.00D+00 OVMax= 2.77D-01

 Cycle   4  Pass 1  IDiag  1:
 RMSU=  1.62D-03    CP:  9.20D-01  2.75D+00 -2.67D-01
 E= -3185.10149530958     Delta-E=        0.012205661167 Rises=F Damp=F
 DIIS: error= 8.23D-02 at cycle   4 NSaved=   4.
 NSaved= 4 IEnMin= 2 EnMin= -3186.11749952402     IErMin= 2 ErrMin= 1.47D-02
 ErrMax= 8.23D-02  0.00D+00 EMaxC= 1.00D-01 BMatC= 2.69D+00 BMatP= 2.12D-01
 IDIUse=2 WtCom= 0.00D+00 WtEn= 1.00D+00
 EnCoef did     2 forward-backward iterations
 Coeff-En:   0.602D-01 0.000D+00 0.468D+00 0.472D+00
 Coeff:      0.602D-01 0.000D+00 0.468D+00 0.472D+00
 Gap=     0.121 Goal=   None    Shift=    0.000
 RMSDP=2.55D-03 MaxDP=2.13D-01 DE= 1.22D-02 OVMax= 2.63D-01

 Cycle   5  Pass 1  IDiag  1:
 RMSU=  9.15D-04    CP:  9.57D-01  1.57D+00  1.19D-01  4.72D-01
 E= -3186.66052399767     Delta-E=       -1.559028688092 Rises=F Damp=F
 DIIS: error= 6.81D-03 at cycle   5 NSaved=   5.
 NSaved= 5 IEnMin= 5 EnMin= -3186.66052399767     IErMin= 5 ErrMin= 6.81D-03
 ErrMax= 6.81D-03  0.00D+00 EMaxC= 1.00D-01 BMatC= 5.26D-02 BMatP= 2.12D-01
 IDIUse=3 WtCom= 9.32D-01 WtEn= 6.81D-02
 Coeff-Com: -0.562D+00 0.758D+00 0.694D-01-0.865D-01 0.821D+00
 Coeff-En:   0.000D+00 0.000D+00 0.192D-01 0.000D+00 0.981D+00
 Coeff:     -0.523D+00 0.706D+00 0.660D-01-0.806D-01 0.832D+00
 Gap=     0.166 Goal=   None    Shift=    0.000
 RMSDP=6.61D-04 MaxDP=5.57D-02 DE=-1.56D+00 OVMax= 2.87D-02

 Cycle   6  Pass 1  IDiag  1:
 RMSU=  2.73D-04    CP:  9.53D-01  1.98D+00  1.80D-01  2.92D-01  9.91D-01
 E= -3186.71327017280     Delta-E=       -0.052746175126 Rises=F Damp=F
 DIIS: error= 1.64D-03 at cycle   6 NSaved=   6.
 NSaved= 6 IEnMin= 6 EnMin= -3186.71327017280     IErMin= 6 ErrMin= 1.64D-03
 ErrMax= 1.64D-03  0.00D+00 EMaxC= 1.00D-01 BMatC= 2.49D-03 BMatP= 5.26D-02
 IDIUse=3 WtCom= 9.84D-01 WtEn= 1.64D-02
 Coeff-Com: -0.290D+00 0.389D+00 0.337D-01-0.545D-01 0.440D+00 0.482D+00
 Coeff-En:   0.000D+00 0.000D+00 0.000D+00 0.000D+00 0.000D+00 0.100D+01
 Coeff:     -0.285D+00 0.383D+00 0.332D-01-0.536D-01 0.433D+00 0.490D+00
 Gap=     0.154 Goal=   None    Shift=    0.000
 RMSDP=1.84D-04 MaxDP=1.08D-02 DE=-5.27D-02 OVMax= 1.27D-02

 Cycle   7  Pass 1  IDiag  1:
 RMSU=  1.16D-04    CP:  9.54D-01  1.95D+00  1.66D-01  2.97D-01  1.01D+00
                    CP:  5.47D-01
 E= -3186.71484635915     Delta-E=       -0.001576186354 Rises=F Damp=F
 DIIS: error= 1.51D-03 at cycle   7 NSaved=   7.
 NSaved= 7 IEnMin= 7 EnMin= -3186.71484635915     IErMin= 7 ErrMin= 1.51D-03
 ErrMax= 1.51D-03  0.00D+00 EMaxC= 1.00D-01 BMatC= 1.17D-03 BMatP= 2.49D-03
 IDIUse=3 WtCom= 9.85D-01 WtEn= 1.51D-02
 Coeff-Com: -0.341D-01 0.420D-01 0.821D-02-0.179D-01 0.599D-01 0.299D+00
 Coeff-Com:  0.643D+00
 Coeff-En:   0.000D+00 0.000D+00 0.000D+00 0.000D+00 0.000D+00 0.201D+00
 Coeff-En:   0.799D+00
 Coeff:     -0.335D-01 0.413D-01 0.809D-02-0.176D-01 0.590D-01 0.298D+00
 Coeff:      0.645D+00
 Gap=     0.154 Goal=   None    Shift=    0.000
 RMSDP=7.41D-05 MaxDP=4.76D-03 DE=-1.58D-03 OVMax= 6.47D-03

 Cycle   8  Pass 1  IDiag  1:
 RMSU=  4.50D-05    CP:  9.53D-01  1.95D+00  1.70D-01  2.93D-01  1.02D+00
                    CP:  6.81D-01  6.33D-01
 E= -3186.71563742829     Delta-E=       -0.000791069138 Rises=F Damp=F
 DIIS: error= 4.76D-04 at cycle   8 NSaved=   8.
 NSaved= 8 IEnMin= 8 EnMin= -3186.71563742829     IErMin= 8 ErrMin= 4.76D-04
 ErrMax= 4.76D-04  0.00D+00 EMaxC= 1.00D-01 BMatC= 1.42D-04 BMatP= 1.17D-03
 IDIUse=3 WtCom= 9.95D-01 WtEn= 4.76D-03
 Coeff-Com:  0.268D-01-0.394D-01 0.101D-02-0.361D-02-0.335D-01 0.101D+00
 Coeff-Com:  0.377D+00 0.571D+00
 Coeff-En:   0.000D+00 0.000D+00 0.000D+00 0.000D+00 0.000D+00 0.000D+00
 Coeff-En:   0.000D+00 0.100D+01
 Coeff:      0.266D-01-0.392D-01 0.101D-02-0.359D-02-0.334D-01 0.100D+00
 Coeff:      0.375D+00 0.573D+00
 Gap=     0.154 Goal=   None    Shift=    0.000
 RMSDP=2.64D-05 MaxDP=1.70D-03 DE=-7.91D-04 OVMax= 2.00D-03

 Cycle   9  Pass 1  IDiag  1:
 RMSU=  1.72D-05    CP:  9.53D-01  1.95D+00  1.71D-01  2.92D-01  1.03D+00
                    CP:  6.78D-01  7.44D-01  7.14D-01
 E= -3186.71574998538     Delta-E=       -0.000112557087 Rises=F Damp=F
 DIIS: error= 1.09D-04 at cycle   9 NSaved=   9.
 NSaved= 9 IEnMin= 9 EnMin= -3186.71574998538     IErMin= 9 ErrMin= 1.09D-04
 ErrMax= 1.09D-04  0.00D+00 EMaxC= 1.00D-01 BMatC= 8.42D-06 BMatP= 1.42D-04
 IDIUse=3 WtCom= 9.99D-01 WtEn= 1.09D-03
 Coeff-Com:  0.152D-01-0.209D-01-0.163D-03-0.186D-03-0.220D-01 0.931D-02
 Coeff-Com:  0.881D-01 0.257D+00 0.674D+00
 Coeff-En:   0.000D+00 0.000D+00 0.000D+00 0.000D+00 0.000D+00 0.000D+00
 Coeff-En:   0.000D+00 0.000D+00 0.100D+01
 Coeff:      0.151D-01-0.209D-01-0.163D-03-0.186D-03-0.220D-01 0.930D-02
 Coeff:      0.880D-01 0.257D+00 0.674D+00
 Gap=     0.154 Goal=   None    Shift=    0.000
 RMSDP=7.84D-06 MaxDP=5.34D-04 DE=-1.13D-04 OVMax= 9.32D-04

 Cycle  10  Pass 1  IDiag  1:
 RMSU=  6.44D-06    CP:  9.53D-01  1.95D+00  1.71D-01  2.91D-01  1.03D+00
                    CP:  6.83D-01  7.36D-01  7.87D-01  8.78D-01
 E= -3186.71575652875     Delta-E=       -0.000006543376 Rises=F Damp=F
 DIIS: error= 4.88D-05 at cycle  10 NSaved=  10.
 NSaved=10 IEnMin=10 EnMin= -3186.71575652875     IErMin=10 ErrMin= 4.88D-05
 ErrMax= 4.88D-05  0.00D+00 EMaxC= 1.00D-01 BMatC= 1.33D-06 BMatP= 8.42D-06
 IDIUse=1 WtCom= 1.00D+00 WtEn= 0.00D+00
 Coeff-Com:  0.508D-02-0.662D-02-0.280D-03 0.244D-03-0.827D-02-0.567D-02
 Coeff-Com:  0.659D-02 0.798D-01 0.409D+00 0.520D+00
 Coeff:      0.508D-02-0.662D-02-0.280D-03 0.244D-03-0.827D-02-0.567D-02
 Coeff:      0.659D-02 0.798D-01 0.409D+00 0.520D+00
 Gap=     0.154 Goal=   None    Shift=    0.000
 RMSDP=3.14D-06 MaxDP=1.23D-04 DE=-6.54D-06 OVMax= 4.54D-04

 Cycle  11  Pass 1  IDiag  1:
 RMSU=  1.91D-06    CP:  9.53D-01  1.95D+00  1.71D-01  2.91D-01  1.03D+00
                    CP:  6.83D-01  7.41D-01  7.90D-01  9.42D-01  6.85D-01
 E= -3186.71575771916     Delta-E=       -0.000001190410 Rises=F Damp=F
 DIIS: error= 3.61D-05 at cycle  11 NSaved=  11.
 NSaved=11 IEnMin=11 EnMin= -3186.71575771916     IErMin=11 ErrMin= 3.61D-05
 ErrMax= 3.61D-05  0.00D+00 EMaxC= 1.00D-01 BMatC= 4.08D-07 BMatP= 1.33D-06
 IDIUse=1 WtCom= 1.00D+00 WtEn= 0.00D+00
 Coeff-Com:  0.106D-02-0.125D-02-0.203D-03 0.161D-03-0.196D-02-0.314D-02
 Coeff-Com: -0.406D-02 0.198D-01 0.169D+00 0.291D+00 0.530D+00
 Coeff:      0.106D-02-0.125D-02-0.203D-03 0.161D-03-0.196D-02-0.314D-02
 Coeff:     -0.406D-02 0.198D-01 0.169D+00 0.291D+00 0.530D+00
 Gap=     0.154 Goal=   None    Shift=    0.000
 RMSDP=1.28D-06 MaxDP=6.29D-05 DE=-1.19D-06 OVMax= 9.54D-05

 Cycle  12  Pass 1  IDiag  1:
 RMSU=  8.54D-07    CP:  9.53D-01  1.95D+00  1.71D-01  2.91D-01  1.03D+00
                    CP:  6.83D-01  7.41D-01  7.94D-01  9.51D-01  7.22D-01
                    CP:  7.56D-01
 E= -3186.71575797138     Delta-E=       -0.000000252216 Rises=F Damp=F
 DIIS: error= 1.86D-05 at cycle  12 NSaved=  12.
 NSaved=12 IEnMin=12 EnMin= -3186.71575797138     IErMin=12 ErrMin= 1.86D-05
 ErrMax= 1.86D-05  0.00D+00 EMaxC= 1.00D-01 BMatC= 9.21D-08 BMatP= 4.08D-07
 IDIUse=1 WtCom= 1.00D+00 WtEn= 0.00D+00
 Coeff-Com: -0.244D-03 0.360D-03-0.106D-03 0.675D-04 0.335D-03-0.368D-03
 Coeff-Com: -0.232D-02-0.283D-03 0.299D-01 0.685D-01 0.222D+00 0.682D+00
 Coeff:     -0.244D-03 0.360D-03-0.106D-03 0.675D-04 0.335D-03-0.368D-03
 Coeff:     -0.232D-02-0.283D-03 0.299D-01 0.685D-01 0.222D+00 0.682D+00
 Gap=     0.154 Goal=   None    Shift=    0.000
 RMSDP=8.52D-07 MaxDP=5.24D-05 DE=-2.52D-07 OVMax= 8.13D-05

 Cycle  13  Pass 1  IDiag  1:
 RMSU=  3.97D-07    CP:  9.53D-01  1.95D+00  1.71D-01  2.91D-01  1.03D+00
                    CP:  6.83D-01  7.40D-01  7.96D-01  9.61D-01  7.44D-01
                    CP:  9.07D-01  1.04D+00
 E= -3186.71575803484     Delta-E=       -0.000000063466 Rises=F Damp=F
 DIIS: error= 6.42D-06 at cycle  13 NSaved=  13.
 NSaved=13 IEnMin=13 EnMin= -3186.71575803484     IErMin=13 ErrMin= 6.42D-06
 ErrMax= 6.42D-06  0.00D+00 EMaxC= 1.00D-01 BMatC= 1.25D-08 BMatP= 9.21D-08
 IDIUse=1 WtCom= 1.00D+00 WtEn= 0.00D+00
 Coeff-Com: -0.365D-03 0.461D-03-0.226D-04 0.526D-05 0.625D-03 0.670D-03
 Coeff-Com:  0.165D-03-0.426D-02-0.250D-01-0.405D-01-0.455D-01 0.343D+00
 Coeff-Com:  0.771D+00
 Coeff:     -0.365D-03 0.461D-03-0.226D-04 0.526D-05 0.625D-03 0.670D-03
 Coeff:      0.165D-03-0.426D-02-0.250D-01-0.405D-01-0.455D-01 0.343D+00
 Coeff:      0.771D+00
 Gap=     0.154 Goal=   None    Shift=    0.000
 RMSDP=6.13D-07 MaxDP=4.39D-05 DE=-6.35D-08 OVMax= 7.26D-05

 Cycle  14  Pass 1  IDiag  1:
 RMSU=  2.27D-07    CP:  9.53D-01  1.95D+00  1.71D-01  2.91D-01  1.03D+00
                    CP:  6.83D-01  7.40D-01  7.97D-01  9.68D-01  7.68D-01
                    CP:  9.82D-01  1.38D+00  1.12D+00
 E= -3186.71575805050     Delta-E=       -0.000000015656 Rises=F Damp=F
 DIIS: error= 1.74D-06 at cycle  14 NSaved=  14.
 NSaved=14 IEnMin=14 EnMin= -3186.71575805050     IErMin=14 ErrMin= 1.74D-06
 ErrMax= 1.74D-06  0.00D+00 EMaxC= 1.00D-01 BMatC= 9.37D-10 BMatP= 1.25D-08
 IDIUse=1 WtCom= 1.00D+00 WtEn= 0.00D+00
 Coeff-Com: -0.107D-03 0.124D-03 0.142D-04-0.133D-04 0.187D-03 0.379D-03
 Coeff-Com:  0.660D-03-0.212D-02-0.212D-01-0.414D-01-0.937D-01-0.133D-01
 Coeff-Com:  0.445D+00 0.726D+00
 Coeff:     -0.107D-03 0.124D-03 0.142D-04-0.133D-04 0.187D-03 0.379D-03
 Coeff:      0.660D-03-0.212D-02-0.212D-01-0.414D-01-0.937D-01-0.133D-01
 Coeff:      0.445D+00 0.726D+00
 Gap=     0.154 Goal=   None    Shift=    0.000
 RMSDP=2.99D-07 MaxDP=2.59D-05 DE=-1.57D-08 OVMax= 5.13D-05

 Cycle  15  Pass 1  IDiag  1:
 RMSU=  9.60D-08    CP:  9.53D-01  1.95D+00  1.71D-01  2.91D-01  1.03D+00
                    CP:  6.83D-01  7.40D-01  7.98D-01  9.71D-01  7.74D-01
                    CP:  1.04D+00  1.58D+00  1.51D+00  1.09D+00
 E= -3186.71575805444     Delta-E=       -0.000000003942 Rises=F Damp=F
 DIIS: error= 1.45D-06 at cycle  15 NSaved=  15.
 NSaved=15 IEnMin=15 EnMin= -3186.71575805444     IErMin=15 ErrMin= 1.45D-06
 ErrMax= 1.45D-06  0.00D+00 EMaxC= 1.00D-01 BMatC= 6.88D-10 BMatP= 9.37D-10
 IDIUse=1 WtCom= 1.00D+00 WtEn= 0.00D+00
 Coeff-Com:  0.246D-04-0.354D-04 0.140D-04-0.830D-05-0.438D-04-0.752D-05
 Coeff-Com:  0.974D-04-0.335D-03-0.449D-02-0.951D-02-0.286D-01-0.664D-01
 Coeff-Com:  0.235D-01 0.296D+00 0.789D+00
 Coeff:      0.246D-04-0.354D-04 0.140D-04-0.830D-05-0.438D-04-0.752D-05
 Coeff:      0.974D-04-0.335D-03-0.449D-02-0.951D-02-0.286D-01-0.664D-01
 Coeff:      0.235D-01 0.296D+00 0.789D+00
 Gap=     0.154 Goal=   None    Shift=    0.000
 RMSDP=1.52D-07 MaxDP=1.50D-05 DE=-3.94D-09 OVMax= 2.81D-05

 Cycle  16  Pass 1  IDiag  1:
 RMSU=  6.07D-08    CP:  9.53D-01  1.95D+00  1.71D-01  2.91D-01  1.03D+00
                    CP:  6.83D-01  7.40D-01  7.99D-01  9.72D-01  7.77D-01
                    CP:  1.07D+00  1.67D+00  1.68D+00  1.36D+00  1.26D+00
 E= -3186.71575805574     Delta-E=       -0.000000001293 Rises=F Damp=F
 DIIS: error= 9.30D-07 at cycle  16 NSaved=  16.
 NSaved=16 IEnMin=16 EnMin= -3186.71575805574     IErMin=16 ErrMin= 9.30D-07
 ErrMax= 9.30D-07  0.00D+00 EMaxC= 1.00D-01 BMatC= 2.41D-10 BMatP= 6.88D-10
 IDIUse=1 WtCom= 1.00D+00 WtEn= 0.00D+00
 Coeff-Com:  0.326D-04-0.396D-04 0.543D-05-0.167D-05-0.520D-04-0.949D-04
 Coeff-Com: -0.190D-03 0.294D-03 0.403D-02 0.907D-02 0.220D-01-0.113D-01
 Coeff-Com: -0.147D+00-0.150D+00 0.298D+00 0.975D+00
 Coeff:      0.326D-04-0.396D-04 0.543D-05-0.167D-05-0.520D-04-0.949D-04
 Coeff:     -0.190D-03 0.294D-03 0.403D-02 0.907D-02 0.220D-01-0.113D-01
 Coeff:     -0.147D+00-0.150D+00 0.298D+00 0.975D+00
 Gap=     0.154 Goal=   None    Shift=    0.000
 RMSDP=1.19D-07 MaxDP=1.16D-05 DE=-1.29D-09 OVMax= 2.16D-05

 Cycle  17  Pass 1  IDiag  1:
 RMSU=  2.56D-08    CP:  9.53D-01  1.95D+00  1.71D-01  2.91D-01  1.03D+00
                    CP:  6.83D-01  7.40D-01  7.99D-01  9.72D-01  7.80D-01
                    CP:  1.09D+00  1.75D+00  1.81D+00  1.54D+00  1.65D+00
                    CP:  1.20D+00
 E= -3186.71575805624     Delta-E=       -0.000000000500 Rises=F Damp=F
 DIIS: error= 1.71D-07 at cycle  17 NSaved=  17.
 NSaved=17 IEnMin=17 EnMin= -3186.71575805624     IErMin=17 ErrMin= 1.71D-07
 ErrMax= 1.71D-07  0.00D+00 EMaxC= 1.00D-01 BMatC= 2.08D-11 BMatP= 2.41D-10
 IDIUse=1 WtCom= 1.00D+00 WtEn= 0.00D+00
 Coeff-Com:  0.916D-05-0.101D-04 0.101D-05 0.191D-06-0.106D-04-0.302D-04
 Coeff-Com: -0.951D-04 0.177D-03 0.262D-02 0.629D-02 0.175D-01 0.846D-02
 Coeff-Com: -0.848D-01-0.148D+00-0.327D-01 0.544D+00 0.686D+00
 Coeff:      0.916D-05-0.101D-04 0.101D-05 0.191D-06-0.106D-04-0.302D-04
 Coeff:     -0.951D-04 0.177D-03 0.262D-02 0.629D-02 0.175D-01 0.846D-02
 Coeff:     -0.848D-01-0.148D+00-0.327D-01 0.544D+00 0.686D+00
 Gap=     0.154 Goal=   None    Shift=    0.000
 RMSDP=4.70D-08 MaxDP=4.19D-06 DE=-5.00D-10 OVMax= 8.35D-06

 Cycle  18  Pass 1  IDiag  1:
 RMSU=  1.22D-08    CP:  9.53D-01  1.95D+00  1.71D-01  2.91D-01  1.03D+00
                    CP:  6.83D-01  7.40D-01  7.99D-01  9.72D-01  7.81D-01
                    CP:  1.09D+00  1.78D+00  1.86D+00  1.62D+00  1.80D+00
                    CP:  1.38D+00  8.09D-01
 E= -3186.71575805630     Delta-E=       -0.000000000064 Rises=F Damp=F
 DIIS: error= 4.80D-08 at cycle  18 NSaved=  18.
 NSaved=18 IEnMin=18 EnMin= -3186.71575805630     IErMin=18 ErrMin= 4.80D-08
 ErrMax= 4.80D-08  0.00D+00 EMaxC= 1.00D-01 BMatC= 2.82D-12 BMatP= 2.08D-11
 IDIUse=1 WtCom= 1.00D+00 WtEn= 0.00D+00
 Coeff-Com: -0.352D-06 0.952D-06 0.409D-07 0.144D-06 0.337D-05 0.282D-05
 Coeff-Com: -0.126D-04 0.384D-04 0.594D-03 0.166D-02 0.532D-02 0.454D-02
 Coeff-Com: -0.226D-01-0.510D-01-0.538D-01 0.146D+00 0.354D+00 0.615D+00
 Coeff:     -0.352D-06 0.952D-06 0.409D-07 0.144D-06 0.337D-05 0.282D-05
 Coeff:     -0.126D-04 0.384D-04 0.594D-03 0.166D-02 0.532D-02 0.454D-02
 Coeff:     -0.226D-01-0.510D-01-0.538D-01 0.146D+00 0.354D+00 0.615D+00
 Gap=     0.154 Goal=   None    Shift=    0.000
 RMSDP=9.56D-09 MaxDP=7.99D-07 DE=-6.37D-11 OVMax= 1.59D-06

 SCF Done:  E(RPBE1PBE) =  -3186.71575806     A.U. after   18 cycles
            NFock= 18  Conv=0.96D-08     -V/T= 2.0054
 KE= 3.169683014572D+03 PE=-1.776718913130D+04 EE= 6.277731807310D+03
 Leave Link  502 at Sat Aug 12 03:41:02 2023, MaxMem=  4026531840 cpu:            3854.4 elap:             122.1
 (Enter /sw/arch/Centos8/EB_production/2021/software/Gaussian/g16.c01/l508.exe)
 QCSCF skips out because SCF is already converged.
 Leave Link  508 at Sat Aug 12 03:41:02 2023, MaxMem=  4026531840 cpu:               0.4 elap:               0.0
 (Enter /sw/arch/Centos8/EB_production/2021/software/Gaussian/g16.c01/l801.exe)
 DoSCS=F DFT=T ScalE2(SS,OS)=  1.000000  1.000000
 Range of M.O.s used for correlation:     1   588
 NBasis=   588 NAE=   144 NBE=   144 NFC=     0 NFV=     0
 NROrb=    588 NOA=   144 NOB=   144 NVA=   444 NVB=   444

 **** Warning!!: The largest alpha MO coefficient is  0.11530385D+02

 Leave Link  801 at Sat Aug 12 03:41:02 2023, MaxMem=  4026531840 cpu:               0.4 elap:               0.0
 (Enter /sw/arch/Centos8/EB_production/2021/software/Gaussian/g16.c01/l1002.exe)
 Minotr:  Closed shell wavefunction.
          Direct CPHF calculation.
          Differentiating once with respect to magnetic field using GIAOs.
          Electric field/nuclear overlap derivatives assumed to be zero.
          Requested convergence is 1.0D-08 RMS, and 1.0D-07 maximum.
          Secondary convergence is 1.0D-12 RMS, and 1.0D-12 maximum.
          NewPWx=T KeepS1=F KeepF1=F KeepIn=T MapXYZ=F SortEE=F KeepMc=T.
        23051 words used for storage of precomputed grid.
 Two-electron integral symmetry not used.
          MDV=    4026531840 using IRadAn=       1.
          Solving linear equations simultaneously, MaxMat=      96.
 FoFCou: FMM=F IPFlag=           0 FMFlag=      100000 FMFlg1=        2001
         NFxFlg=           0 DoJE=F BraDBF=F KetDBF=T FulRan=T
         wScrn=  0.000000 ICntrl=      6100 IOpCl=  0 I1Cent=           7 NGrid=          75
         NMat0=    1 NMatS0=      1 NMatT0=    0 NMatD0=    1 NMtDS0=    0 NMtDT0=    0
 Symmetry not used in FoFCou.
   1 Symmetry operations used in ECPInt.
 ECPInt:  NShTT=   44551 NPrTT=  185758 LenC2=   44552 LenP2D=  185758.
 LDataN:  DoStor=T MaxTD1= 5 Len=  102
 FoFJK:  IHMeth= 1 ICntrl=    6127 DoSepK=F KAlg= 0 I1Cent=           0 FoldK=F
 IRaf=         1 NMat=       1 IRICut=       1 DoRegI=T DoRafI=F ISym2E= 0 IDoP0=0 IntGTp=1.
          There are     3 degrees of freedom in the 1st order CPHF.  IDoFFX=0 NUNeed=     3.
      3 vectors produced by pass  0 Test12= 2.13D-12 3.33D-08 XBig12= 1.45D+02 2.03D+00.
 AX will form     3 AO Fock derivatives at one time.
      3 vectors produced by pass  1 Test12= 2.13D-12 3.33D-08 XBig12= 1.06D+00 3.53D-01.
      3 vectors produced by pass  2 Test12= 2.13D-12 3.33D-08 XBig12= 4.88D-02 5.23D-02.
      3 vectors produced by pass  3 Test12= 2.13D-12 3.33D-08 XBig12= 4.59D-04 6.63D-03.
      3 vectors produced by pass  4 Test12= 2.13D-12 3.33D-08 XBig12= 2.29D-05 1.57D-03.
      3 vectors produced by pass  5 Test12= 2.13D-12 3.33D-08 XBig12= 2.26D-07 8.36D-05.
      3 vectors produced by pass  6 Test12= 2.13D-12 3.33D-08 XBig12= 1.04D-09 9.49D-06.
      3 vectors produced by pass  7 Test12= 2.13D-12 3.33D-08 XBig12= 1.15D-11 7.81D-07.
      3 vectors produced by pass  8 Test12= 2.13D-12 3.33D-08 XBig12= 3.28D-13 1.81D-07.
 InvSVY:  IOpt=1 It=  1 EMax= 5.33D-15
 Solved reduced A of dimension    27 with     3 vectors.
 Calculating GIAO nuclear magnetic shielding tensors.
 SCF GIAO Magnetic shielding tensor (ppm):
      1  C    Isotropic =   122.6269   Anisotropy =    87.5056
   XX=   154.2567   YX=    13.6126   ZX=    35.3636
   XY=    24.3124   YY=   106.6222   ZY=   -10.4295
   XZ=    50.3839   YZ=   -15.0875   ZZ=   107.0017
   Eigenvalues:    69.8263   117.0904   180.9640
      2  C    Isotropic =   123.4752   Anisotropy =    81.0419
   XX=   156.7616   YX=   -12.5669   ZX=    27.1513
   XY=    -0.2686   YY=    74.5081   ZY=    21.0396
   XZ=    29.0168   YZ=     7.7371   ZZ=   139.1558
   Eigenvalues:    69.5636   123.3588   177.5031
      3  C    Isotropic =   125.4503   Anisotropy =    79.7925
   XX=   112.0605   YX=     3.4021   ZX=    57.5195
   XY=     2.6164   YY=   129.4101   ZY=    17.9978
   XZ=    42.1570   YZ=    13.1205   ZZ=   134.8803
   Eigenvalues:    71.3817   126.3239   178.6453
      4  C    Isotropic =   126.0678   Anisotropy =    81.1309
   XX=   126.8048   YX=    51.4654   ZX=    22.1771
   XY=    34.4868   YY=   108.5825   ZY=    13.1940
   XZ=    15.2213   YZ=    24.1366   ZZ=   142.8160
   Eigenvalues:    73.6408   124.4076   180.1550
      5  C    Isotropic =   122.0315   Anisotropy =    87.4226
   XX=   157.1242   YX=    20.6008   ZX=    20.3015
   XY=    15.2772   YY=   114.6812   ZY=    27.8775
   XZ=    33.5896   YZ=    36.8590   ZZ=    94.2892
   Eigenvalues:    68.8992   116.8821   180.3132
      6  H    Isotropic =    30.8991   Anisotropy =    13.7864
   XX=    32.3570   YX=    -6.4727   ZX=    -0.1501
   XY=    -7.5735   YY=    33.7053   ZY=    -0.0319
   XZ=    -0.8488   YZ=    -0.2908   ZZ=    26.6349
   Eigenvalues:    25.7239    26.8833    40.0900
      7  H    Isotropic =    28.6288   Anisotropy =     4.6440
   XX=    29.7981   YX=    -0.1900   ZX=    -2.4984
   XY=    -2.8245   YY=    30.3772   ZY=    -0.4013
   XZ=    -0.9956   YZ=    -0.6050   ZZ=    25.7110
   Eigenvalues:    24.8770    29.2846    31.7247
      8  H    Isotropic =    28.5913   Anisotropy =     6.5937
   XX=    30.4558   YX=    -0.3127   ZX=    -4.3746
   XY=    -0.2219   YY=    27.2181   ZY=    -0.5275
   XZ=    -2.6580   YZ=    -0.4633   ZZ=    28.0998
   Eigenvalues:    25.3982    27.3885    32.9871
      9  H    Isotropic =    28.6200   Anisotropy =     6.3757
   XX=    29.5528   YX=    -3.4168   ZX=    -1.1716
   XY=    -2.1077   YY=    30.5313   ZY=     0.0888
   XZ=    -0.8509   YZ=    -0.7389   ZZ=    25.7759
   Eigenvalues:    25.2642    27.7253    32.8705
     10  H    Isotropic =    28.8558   Anisotropy =     3.6080
   XX=    28.5603   YX=    -0.4543   ZX=     0.0158
   XY=     1.0972   YY=    29.7493   ZY=    -1.3182
   XZ=    -0.7772   YZ=    -2.7608   ZZ=    28.2579
   Eigenvalues:    26.8223    28.4841    31.2612
     11  Fe   Isotropic = -5081.5567   Anisotropy =  9104.4342
   XX= -3333.4294   YX=  1928.7386   ZX=  4034.6196
   XY=  1976.9084   YY= -7328.5208   ZY=  1838.9336
   XZ=  4033.3066   YZ=  1842.0225   ZZ= -4582.7200
   Eigenvalues: -8258.8956 -7973.8406   988.0661
     12  C    Isotropic =   122.2846   Anisotropy =    77.8919
   XX=   144.9288   YX=     2.8103   ZX=    28.4020
   XY=    16.4816   YY=    70.0888   ZY=    11.0222
   XZ=    21.3683   YZ=    -5.1400   ZZ=   151.8363
   Eigenvalues:    68.8649   123.7764   174.2125
     13  C    Isotropic =   102.6572   Anisotropy =    86.9797
   XX=    94.1337   YX=     3.8269   ZX=    46.3510
   XY=     2.9151   YY=    81.1993   ZY=    28.6944
   XZ=    31.9433   YZ=     7.0094   ZZ=   132.6387
   Eigenvalues:    66.1329    81.1951   160.6437
     14  C    Isotropic =   111.9546   Anisotropy =    88.4761
   XX=    92.6667   YX=    30.2477   ZX=    28.4262
   XY=    19.6633   YY=   112.0976   ZY=    33.8493
   XZ=    17.3691   YZ=    33.6800   ZZ=   131.0996
   Eigenvalues:    75.6012    89.3240   170.9387
     15  C    Isotropic =   116.9422   Anisotropy =    81.9207
   XX=   152.6599   YX=    12.9673   ZX=    16.5627
   XY=    18.3505   YY=   107.8353   ZY=    31.9513
   XZ=    22.4134   YZ=    47.1376   ZZ=    90.3313
   Eigenvalues:    58.2480   121.0225   171.5560
     16  C    Isotropic =   125.1105   Anisotropy =    78.8801
   XX=   146.4509   YX=    17.8652   ZX=    36.9689
   XY=    23.6980   YY=   125.0685   ZY=    -6.1614
   XZ=    50.2525   YZ=    -6.8971   ZZ=   103.8120
   Eigenvalues:    71.3053   126.3289   177.6972
     17  H    Isotropic =    28.2021   Anisotropy =     4.0080
   XX=    28.8617   YX=    -1.3910   ZX=    -2.5160
   XY=    -1.5646   YY=    28.8700   ZY=    -1.5921
   XZ=    -2.7103   YZ=    -0.7532   ZZ=    26.8746
   Eigenvalues:    24.3453    29.3870    30.8741
     18  H    Isotropic =    27.9807   Anisotropy =     4.4706
   XX=    28.6354   YX=    -4.0998   ZX=    -0.2237
   XY=    -0.7623   YY=    28.4196   ZY=    -0.7772
   XZ=    -2.9212   YZ=    -2.4354   ZZ=    26.8872
   Eigenvalues:    24.2082    28.7729    30.9611
     19  H    Isotropic =    28.3590   Anisotropy =     7.6023
   XX=    29.4737   YX=    -1.8044   ZX=    -3.5118
   XY=    -1.6510   YY=    27.2361   ZY=     0.8269
   XZ=    -4.4709   YZ=     0.4183   ZZ=    28.3672
   Eigenvalues:    24.6891    26.9607    33.4272
     20  C    Isotropic =   161.3976   Anisotropy =    16.2877
   XX=   169.9131   YX=     6.6005   ZX=    -1.0232
   XY=     5.2945   YY=   150.9925   ZY=     0.0051
   XZ=     6.5989   YZ=    -2.3523   ZZ=   163.2871
   Eigenvalues:   149.0209   162.9158   172.2561
     21  H    Isotropic =    28.3140   Anisotropy =     7.3762
   XX=    25.0883   YX=     1.1894   ZX=    -2.6548
   XY=     3.1414   YY=    32.2482   ZY=     1.5339
   XZ=    -1.0872   YZ=     2.3712   ZZ=    27.6054
   Eigenvalues:    23.1985    28.5120    33.2314
     22  P    Isotropic =   426.7122   Anisotropy =    83.1528
   XX=   416.8747   YX=   -29.2720   ZX=    -4.4392
   XY=    19.6071   YY=   383.5990   ZY=    -2.5394
   XZ=    27.8238   YZ=    16.6487   ZZ=   479.6628
   Eigenvalues:   382.1220   415.8671   482.1473
     23  C    Isotropic =   170.6049   Anisotropy =     7.3932
   XX=   173.6136   YX=    -0.9611   ZX=     2.3363
   XY=     2.4755   YY=   171.5296   ZY=    -6.7207
   XZ=     1.5785   YZ=    -4.9116   ZZ=   166.6714
   Eigenvalues:   162.4218   173.8591   175.5337
     24  H    Isotropic =    29.8663   Anisotropy =     6.6597
   XX=    30.7788   YX=    -0.3556   ZX=    -1.5061
   XY=     0.3368   YY=    27.1653   ZY=    -3.8444
   XZ=    -1.6009   YZ=    -3.6596   ZZ=    31.6548
   Eigenvalues:    24.9315    30.3613    34.3061
     25  H    Isotropic =    29.6295   Anisotropy =     8.1512
   XX=    34.5335   YX=     1.3938   ZX=     1.0125
   XY=     1.2562   YY=    27.6106   ZY=    -1.8620
   XZ=     2.6974   YZ=    -1.9062   ZZ=    26.7444
   Eigenvalues:    24.7163    29.1087    35.0636
     26  H    Isotropic =    29.9730   Anisotropy =     5.4740
   XX=    28.8807   YX=     0.0872   ZX=    -0.2127
   XY=    -0.3060   YY=    33.3983   ZY=     0.9833
   XZ=     1.2731   YZ=     1.3318   ZZ=    27.6399
   Eigenvalues:    27.2376    29.0590    33.6223
     27  P    Isotropic =   392.1964   Anisotropy =    49.7873
   XX=   360.6895   YX=     2.5987   ZX=     1.2324
   XY=    -8.4127   YY=   393.2766   ZY=     6.6735
   XZ=    -0.9527   YZ=    12.1444   ZZ=   422.6232
   Eigenvalues:   360.4164   390.7849   425.3880
     28  C    Isotropic =   160.5760   Anisotropy =    18.7432
   XX=   159.7417   YX=     4.6272   ZX=    -2.1398
   XY=     4.2031   YY=   153.2740   ZY=    -8.8092
   XZ=    -0.7531   YZ=    -7.7879   ZZ=   168.7124
   Eigenvalues:   148.5441   160.1125   173.0715
     29  C    Isotropic =   158.7026   Anisotropy =    19.0659
   XX=   153.2139   YX=     5.9729   ZX=    -2.8082
   XY=     7.1061   YY=   156.7726   ZY=     8.2030
   XZ=    -0.7169   YZ=     8.9311   ZZ=   166.1213
   Eigenvalues:   145.8250   158.8696   171.4132
     30  C    Isotropic =   162.4750   Anisotropy =    26.4734
   XX=   161.8976   YX=   -11.7389   ZX=     2.3797
   XY=   -14.8329   YY=   170.3783   ZY=    -0.5329
   XZ=     0.2397   YZ=     4.9087   ZZ=   155.1492
   Eigenvalues:   150.8876   156.4135   180.1240
     31  H    Isotropic =    30.1287   Anisotropy =     8.8223
   XX=    34.7255   YX=     4.0302   ZX=     0.4396
   XY=     0.5628   YY=    30.1885   ZY=     2.0987
   XZ=     0.8069   YZ=     4.0573   ZZ=    25.4721
   Eigenvalues:    23.9320    30.4438    36.0103
     32  H    Isotropic =    31.1820   Anisotropy =    10.0215
   XX=    28.3951   YX=    -0.0907   ZX=    -0.6090
   XY=    -0.3164   YY=    33.3139   ZY=     5.1174
   XZ=     0.4429   YZ=     5.3448   ZZ=    31.8368
   Eigenvalues:    27.2879    28.3951    37.8629
     33  H    Isotropic =    30.1392   Anisotropy =     5.2995
   XX=    26.7437   YX=    -0.4242   ZX=    -0.8646
   XY=    -0.2601   YY=    32.9764   ZY=    -2.5671
   XZ=    -0.4571   YZ=    -0.3101   ZZ=    30.6976
   Eigenvalues:    26.5819    30.1636    33.6723
     34  C    Isotropic =   158.2743   Anisotropy =    32.2937
   XX=   176.5347   YX=     8.7688   ZX=    -2.5997
   XY=    11.8650   YY=   146.8936   ZY=     1.7065
   XZ=     3.0429   YZ=     3.1721   ZZ=   151.3946
   Eigenvalues:   143.0424   151.9771   179.8034
     35  H    Isotropic =    31.1632   Anisotropy =     9.7397
   XX=    31.0854   YX=     3.5987   ZX=     3.4188
   XY=     2.9625   YY=    29.4150   ZY=     2.8771
   XZ=     3.0728   YZ=     2.8780   ZZ=    32.9890
   Eigenvalues:    26.8419    28.9914    37.6563
     36  H    Isotropic =    30.5915   Anisotropy =     7.5405
   XX=    35.1610   YX=    -2.0860   ZX=     0.8684
   XY=    -0.8032   YY=    27.7015   ZY=     0.2021
   XZ=     1.4431   YZ=    -0.0321   ZZ=    28.9121
   Eigenvalues:    27.3684    28.7877    35.6185
     37  H    Isotropic =    30.4297   Anisotropy =     7.5248
   XX=    30.8358   YX=     5.6211   ZX=    -1.6417
   XY=     4.1327   YY=    29.1485   ZY=    -1.5772
   XZ=    -0.2547   YZ=    -0.6571   ZZ=    31.3047
   Eigenvalues:    25.0330    30.8098    35.4462
     38  C    Isotropic =   156.9554   Anisotropy =    37.0560
   XX=   141.7537   YX=     5.3248   ZX=    -7.1504
   XY=     8.9488   YY=   161.8133   ZY=   -13.2654
   XZ=    -3.2063   YZ=   -16.7689   ZZ=   167.2992
   Eigenvalues:   139.4662   149.7406   181.6594
     39  H    Isotropic =    31.5582   Anisotropy =     8.9090
   XX=    28.5025   YX=     2.3200   ZX=     0.9007
   XY=     1.8281   YY=    29.1380   ZY=     0.3899
   XZ=     2.0260   YZ=     1.6015   ZZ=    37.0339
   Eigenvalues:    26.6999    30.4771    37.4975
     40  H    Isotropic =    31.5484   Anisotropy =    14.5129
   XX=    35.1763   YX=     6.7210   ZX=     3.3386
   XY=     8.4053   YY=    29.0470   ZY=    -0.1390
   XZ=     4.5561   YZ=    -0.2791   ZZ=    30.4218
   Eigenvalues:    23.1103    30.3112    41.2236
     41  H    Isotropic =    30.4773   Anisotropy =     6.6223
   XX=    29.0668   YX=     1.2881   ZX=     0.9128
   XY=    -0.1830   YY=    33.3504   ZY=    -2.0799
   XZ=     3.5010   YZ=    -3.8191   ZZ=    29.0148
   Eigenvalues:    25.9357    30.6041    34.8922
     42  C    Isotropic =   160.7286   Anisotropy =    36.5774
   XX=   148.2913   YX=     7.7509   ZX=     5.4297
   XY=     8.0319   YY=   158.7843   ZY=    13.9397
   XZ=     5.4175   YZ=    13.8539   ZZ=   175.1102
   Eigenvalues:   143.9001   153.1722   185.1135
     43  H    Isotropic =    30.2714   Anisotropy =     4.6730
   XX=    32.6055   YX=     0.3935   ZX=     0.1298
   XY=     1.4196   YY=    26.2382   ZY=     1.4185
   XZ=     1.4500   YZ=     0.6293   ZZ=    31.9707
   Eigenvalues:    25.9722    31.4554    33.3868
     44  H    Isotropic =    30.9076   Anisotropy =     9.8040
   XX=    28.5975   YX=     0.8719   ZX=    -2.2643
   XY=     0.9134   YY=    27.5379   ZY=     0.4170
   XZ=    -3.2011   YZ=    -0.5509   ZZ=    36.5875
   Eigenvalues:    26.7995    28.4798    37.4436
     45  H    Isotropic =    30.2486   Anisotropy =     7.8966
   XX=    26.7018   YX=     0.8682   ZX=    -2.1221
   XY=     0.6412   YY=    34.5237   ZY=     1.7308
   XZ=    -2.1901   YZ=     3.1344   ZZ=    29.5202
   Eigenvalues:    25.1579    30.0748    35.5130
     46  C    Isotropic =   157.5188   Anisotropy =    40.2544
   XX=   184.1675   YX=    -3.9536   ZX=     0.4470
   XY=    -1.3703   YY=   144.7069   ZY=    -4.9580
   XZ=    -2.0974   YZ=    -1.8553   ZZ=   143.6820
   Eigenvalues:   140.6204   147.5809   184.3551
     47  H    Isotropic =    30.2538   Anisotropy =     6.4665
   XX=    33.0985   YX=     2.6823   ZX=     1.2169
   XY=     1.5889   YY=    25.3341   ZY=     1.8873
   XZ=     0.5219   YZ=     2.0700   ZZ=    32.3288
   Eigenvalues:    24.4113    31.7853    34.5648
     48  H    Isotropic =    30.7159   Anisotropy =     8.3237
   XX=    33.5498   YX=    -4.4931   ZX=    -1.5080
   XY=    -2.7108   YY=    31.1270   ZY=     0.0287
   XZ=    -0.8365   YZ=     0.3148   ZZ=    27.4709
   Eigenvalues:    27.1363    28.7464    36.2650
     49  H    Isotropic =    31.0938   Anisotropy =     9.9387
   XX=    34.0725   YX=     2.3666   ZX=    -5.0465
   XY=     1.7743   YY=    28.4634   ZY=    -1.8076
   XZ=    -3.3361   YZ=    -1.7843   ZZ=    30.7454
   Eigenvalues:    27.4495    28.1122    37.7195
     50  C    Isotropic =   161.8648   Anisotropy =    27.4001
   XX=   156.1343   YX=    -3.3762   ZX=    -4.6877
   XY=    -8.2360   YY=   178.1112   ZY=    -3.7414
   XZ=    -3.5085   YZ=    -6.5567   ZZ=   151.3488
   Eigenvalues:   147.2133   158.2495   180.1315
     51  H    Isotropic =    30.8952   Anisotropy =    10.2458
   XX=    27.8836   YX=     1.0916   ZX=    -2.4824
   XY=     1.7842   YY=    32.9411   ZY=    -5.1416
   XZ=    -1.8854   YZ=    -4.1424   ZZ=    31.8609
   Eigenvalues:    26.7820    28.1778    37.7257
     52  H    Isotropic =    29.7133   Anisotropy =     5.8024
   XX=    33.3141   YX=     0.2311   ZX=    -2.0545
   XY=    -1.5281   YY=    30.3644   ZY=    -2.2394
   XZ=    -0.7402   YZ=    -2.2132   ZZ=    25.4614
   Eigenvalues:    24.3381    31.2203    33.5816
     53  H    Isotropic =    30.2337   Anisotropy =     6.2498
   XX=    26.9902   YX=     2.1771   ZX=    -0.1668
   XY=     2.4369   YY=    33.2197   ZY=     1.9831
   XZ=     0.0784   YZ=     0.7331   ZZ=    30.4912
   Eigenvalues:    26.1757    30.1252    34.4003
     54  C    Isotropic =    52.0075   Anisotropy =   198.9551
   XX=    88.4338   YX=   -90.2369   ZX=    19.7274
   XY=   -90.3721   YY=    81.0981   ZY=   -39.9634
   XZ=    24.3613   YZ=   -39.1102   ZZ=   -13.5095
   Eigenvalues:   -29.8819     1.2601   184.6442
     55  C    Isotropic =    54.1071   Anisotropy =   188.5108
   XX=    89.7481   YX=   -72.9592   ZX=    64.8827
   XY=   -72.9719   YY=    96.9194   ZY=   -20.4545
   XZ=    46.8101   YZ=   -15.8573   ZZ=   -24.3463
   Eigenvalues:   -48.1766    30.7169   179.7810
     56  C    Isotropic =    57.0438   Anisotropy =   173.7491
   XX=    53.6864   YX=  -104.1481   ZX=    33.7332
   XY=  -102.5683   YY=    70.8748   ZY=   -13.8530
   XZ=    29.9409   YZ=    -7.2853   ZZ=    46.5702
   Eigenvalues:   -44.4781    42.7330   172.8765
     57  C    Isotropic =    65.8146   Anisotropy =   177.6797
   XX=    65.3611   YX=  -105.3213   ZX=    34.8960
   XY=  -102.3262   YY=    80.9892   ZY=   -12.3727
   XZ=    30.2262   YZ=    -9.9794   ZZ=    51.0936
   Eigenvalues:   -34.2130    47.3891   184.2678
     58  H    Isotropic =    23.3908   Anisotropy =     8.8405
   XX=    23.4679   YX=     2.7341   ZX=     4.8993
   XY=     3.2225   YY=    25.5550   ZY=     1.3542
   XZ=     2.6073   YZ=     1.8999   ZZ=    21.1496
   Eigenvalues:    18.3441    22.5439    29.2845
     59  C    Isotropic =    66.6612   Anisotropy =   175.3490
   XX=    97.8561   YX=   -67.9812   ZX=    49.7956
   XY=   -66.0846   YY=   115.6528   ZY=   -14.5597
   XZ=    46.9393   YZ=   -12.3101   ZZ=   -13.5253
   Eigenvalues:   -32.6028    49.0259   183.5605
     60  H    Isotropic =    23.8137   Anisotropy =     7.4616
   XX=    20.5971   YX=     1.1660   ZX=    -2.7705
   XY=     0.7341   YY=    24.0652   ZY=     2.8944
   XZ=    -1.8568   YZ=     2.6437   ZZ=    26.7790
   Eigenvalues:    19.0981    23.5550    28.7882
     61  C    Isotropic =    64.9814   Anisotropy =   180.4212
   XX=   100.5996   YX=   -82.8498   ZX=    -0.4441
   XY=   -81.5095   YY=    89.7584   ZY=   -53.2611
   XZ=     0.4899   YZ=   -53.3302   ZZ=     4.5861
   Eigenvalues:   -33.9971    43.6790   185.2622
     62  H    Isotropic =    24.4433   Anisotropy =     5.8363
   XX=    21.4853   YX=     1.9537   ZX=     0.1681
   XY=     1.4894   YY=    25.2666   ZY=     1.8434
   XZ=    -0.5709   YZ=     2.5528   ZZ=    26.5779
   Eigenvalues:    20.6340    24.3617    28.3342
     63  H    Isotropic =    24.4974   Anisotropy =     5.7993
   XX=    23.0502   YX=     2.8762   ZX=    -0.1642
   XY=     2.7795   YY=    25.2948   ZY=     2.2751
   XZ=    -0.5136   YZ=     2.5559   ZZ=    25.1472
   Eigenvalues:    20.4878    24.6408    28.3636
     64  H    Isotropic =    24.5618   Anisotropy =     3.6451
   XX=    23.2269   YX=     2.6586   ZX=    -1.5991
   XY=     2.2217   YY=    24.7444   ZY=     0.6165
   XZ=    -2.1009   YZ=     0.7905   ZZ=    25.7140
   Eigenvalues:    20.6983    25.9952    26.9918
     65  C    Isotropic =    55.3481   Anisotropy =   184.6974
   XX=   171.7950   YX=    26.7680   ZX=   -22.5341
   XY=    25.0264   YY=     5.3524   ZY=     8.0643
   XZ=   -25.9387   YZ=     7.6313   ZZ=   -11.1032
   Eigenvalues:   -19.8645     7.4290   178.4797
     66  C    Isotropic =    66.1564   Anisotropy =   175.3881
   XX=   180.7416   YX=     8.4106   ZX=   -10.8090
   XY=    16.2432   YY=    27.1859   ZY=   -43.7274
   XZ=   -14.5934   YZ=   -34.5376   ZZ=    -9.4583
   Eigenvalues:   -34.4251    49.8125   183.0818
     67  C    Isotropic =    64.4140   Anisotropy =   177.5635
   XX=   179.3347   YX=    20.5173   ZX=    -5.7762
   XY=    28.8092   YY=   -30.9863   ZY=    -2.8628
   XZ=   -10.0403   YZ=   -18.6595   ZZ=    44.8935
   Eigenvalues:   -35.0423    45.4945   182.7896
     68  C    Isotropic =    66.8819   Anisotropy =   173.4895
   XX=   177.2390   YX=    29.5658   ZX=   -12.1369
   XY=    28.2526   YY=   -28.5959   ZY=    -6.9730
   XZ=   -12.7008   YZ=    -4.9993   ZZ=    52.0027
   Eigenvalues:   -32.7927    50.8969   182.5416
     69  H    Isotropic =    24.7065   Anisotropy =    13.1457
   XX=    20.7216   YX=    -2.4806   ZX=     5.0645
   XY=    -2.3696   YY=    27.7572   ZY=    -6.3318
   XZ=     2.3900   YZ=    -4.1492   ZZ=    25.6407
   Eigenvalues:    18.6929    21.9563    33.4703
     70  C    Isotropic =    67.4076   Anisotropy =   173.1751
   XX=   179.1989   YX=    12.8148   ZX=   -17.6106
   XY=    16.5662   YY=    34.6875   ZY=   -36.8365
   XZ=   -15.2686   YZ=   -38.6187   ZZ=   -11.6634
   Eigenvalues:   -33.0137    52.3789   182.8577
     71  H    Isotropic =    24.8142   Anisotropy =    12.0466
   XX=    21.4505   YX=    -1.1641   ZX=     3.8550
   XY=     0.8883   YY=    22.5378   ZY=    -2.8430
   XZ=     3.0497   YZ=    -4.5195   ZZ=    30.4543
   Eigenvalues:    19.6719    21.9254    32.8453
     72  C    Isotropic =    69.8215   Anisotropy =   171.0458
   XX=   177.2342   YX=    26.8451   ZX=   -26.3999
   XY=    24.5843   YY=    32.5576   ZY=    30.6587
   XZ=   -24.2297   YZ=    32.0982   ZZ=    -0.3275
   Eigenvalues:   -25.3769    50.9893   183.8520
     73  H    Isotropic =    24.8480   Anisotropy =     6.1251
   XX=    21.1632   YX=    -1.2848   ZX=     1.6900
   XY=    -0.7841   YY=    25.3833   ZY=    -1.5082
   XZ=     1.0914   YZ=    -1.1781   ZZ=    27.9975
   Eigenvalues:    20.7583    24.8543    28.9314
     74  H    Isotropic =    24.8973   Anisotropy =     7.0715
   XX=    21.1390   YX=    -1.3479   ZX=     1.4865
   XY=    -0.7794   YY=    26.6663   ZY=    -2.2737
   XZ=     1.1724   YZ=    -2.7124   ZZ=    26.8867
   Eigenvalues:    20.7933    24.2871    29.6116
     75  H    Isotropic =    25.0376   Anisotropy =     3.4036
   XX=    21.4158   YX=    -0.8030   ZX=     0.6124
   XY=    -0.6944   YY=    27.1708   ZY=     0.2335
   XZ=     0.6082   YZ=     0.2635   ZZ=    26.5263
   Eigenvalues:    21.2431    26.5631    27.3067
 End of Minotr F.D. properties file   721 does not exist.
 End of Minotr F.D. properties file   722 does not exist.
 End of Minotr F.D. properties file   788 does not exist.
 Leave Link 1002 at Sat Aug 12 03:42:49 2023, MaxMem=  4026531840 cpu:            3058.6 elap:             106.4
 (Enter /sw/arch/Centos8/EB_production/2021/software/Gaussian/g16.c01/l601.exe)
 Copying SCF densities to generalized density rwf, IOpCl= 0 IROHF=0.

 **********************************************************************

            Population analysis using the SCF Density.

 **********************************************************************

 Alpha  occ. eigenvalues -- -256.34919 -77.18824 -77.17155 -30.12382 -25.97235
 Alpha  occ. eigenvalues --  -25.95338 -25.95326 -10.25310 -10.24962 -10.24724
 Alpha  occ. eigenvalues --  -10.24623 -10.24574 -10.24537 -10.24419 -10.24405
 Alpha  occ. eigenvalues --  -10.24334 -10.24316 -10.24269 -10.24255 -10.24252
 Alpha  occ. eigenvalues --  -10.24183 -10.24101 -10.23998 -10.23942 -10.23850
 Alpha  occ. eigenvalues --  -10.23690 -10.23528 -10.23242 -10.23213 -10.23171
 Alpha  occ. eigenvalues --  -10.23132 -10.22987 -10.22059 -10.21919 -10.21549
 Alpha  occ. eigenvalues --  -10.21389 -10.21226 -10.21120 -10.20808  -6.59873
 Alpha  occ. eigenvalues --   -6.58078  -4.73928  -4.73915  -4.73385  -4.72142
 Alpha  occ. eigenvalues --   -4.72107  -4.71563  -3.45556  -2.24543  -2.19783
 Alpha  occ. eigenvalues --   -2.19760  -0.92078  -0.90163  -0.88216  -0.86983
 Alpha  occ. eigenvalues --   -0.83747  -0.81758  -0.80100  -0.78654  -0.76860
 Alpha  occ. eigenvalues --   -0.76033  -0.75563  -0.73597  -0.72757  -0.72602
 Alpha  occ. eigenvalues --   -0.71733  -0.70075  -0.69573  -0.68730  -0.68663
 Alpha  occ. eigenvalues --   -0.66118  -0.65502  -0.62569  -0.61688  -0.60966
 Alpha  occ. eigenvalues --   -0.60726  -0.58690  -0.56461  -0.55599  -0.55463
 Alpha  occ. eigenvalues --   -0.55287  -0.54719  -0.53871  -0.52972  -0.52851
 Alpha  occ. eigenvalues --   -0.51310  -0.49740  -0.47582  -0.47502  -0.46654
 Alpha  occ. eigenvalues --   -0.46628  -0.46305  -0.45751  -0.45509  -0.45283
 Alpha  occ. eigenvalues --   -0.44298  -0.44026  -0.43875  -0.43299  -0.43124
 Alpha  occ. eigenvalues --   -0.42844  -0.42272  -0.42148  -0.41862  -0.41651
 Alpha  occ. eigenvalues --   -0.41124  -0.40813  -0.40204  -0.39660  -0.39482
 Alpha  occ. eigenvalues --   -0.39322  -0.39141  -0.38903  -0.38283  -0.38113
 Alpha  occ. eigenvalues --   -0.38070  -0.37932  -0.37386  -0.37109  -0.36742
 Alpha  occ. eigenvalues --   -0.36631  -0.36263  -0.35836  -0.35268  -0.34798
 Alpha  occ. eigenvalues --   -0.34379  -0.33585  -0.33446  -0.33054  -0.31326
 Alpha  occ. eigenvalues --   -0.28916  -0.28768  -0.28073  -0.27869  -0.27721
 Alpha  occ. eigenvalues --   -0.27355  -0.26368  -0.25819  -0.25413  -0.24866
 Alpha  occ. eigenvalues --   -0.22552  -0.21651  -0.21398  -0.17918
 Alpha virt. eigenvalues --   -0.02548  -0.01213  -0.00772  -0.00216   0.00030
 Alpha virt. eigenvalues --    0.00415   0.03293   0.04519   0.05772   0.06410
 Alpha virt. eigenvalues --    0.06532   0.06992   0.07263   0.07450   0.07804
 Alpha virt. eigenvalues --    0.08257   0.08591   0.09504   0.09664   0.10083
 Alpha virt. eigenvalues --    0.10133   0.10646   0.10885   0.11289   0.11814
 Alpha virt. eigenvalues --    0.12300   0.12595   0.12905   0.13140   0.13517
 Alpha virt. eigenvalues --    0.13876   0.14124   0.14305   0.14344   0.14646
 Alpha virt. eigenvalues --    0.14973   0.15178   0.15486   0.15833   0.16063
 Alpha virt. eigenvalues --    0.16347   0.16803   0.17107   0.17239   0.17446
 Alpha virt. eigenvalues --    0.17742   0.18042   0.18514   0.18618   0.18856
 Alpha virt. eigenvalues --    0.19544   0.19849   0.20093   0.20507   0.21015
 Alpha virt. eigenvalues --    0.21519   0.21700   0.22349   0.23075   0.23597
 Alpha virt. eigenvalues --    0.23877   0.24259   0.24373   0.24613   0.25216
 Alpha virt. eigenvalues --    0.25454   0.26084   0.26595   0.26835   0.28316
 Alpha virt. eigenvalues --    0.28547   0.29428   0.29716   0.29850   0.30306
 Alpha virt. eigenvalues --    0.30611   0.31244   0.31952   0.32682   0.32790
 Alpha virt. eigenvalues --    0.33018   0.33449   0.33983   0.34581   0.35169
 Alpha virt. eigenvalues --    0.35706   0.37867   0.38582   0.38802   0.39766
 Alpha virt. eigenvalues --    0.41297   0.41743   0.42449   0.42807   0.42930
 Alpha virt. eigenvalues --    0.43365   0.43625   0.44048   0.44376   0.44861
 Alpha virt. eigenvalues --    0.45039   0.45403   0.45761   0.46297   0.46624
 Alpha virt. eigenvalues --    0.46906   0.47496   0.47660   0.47918   0.48427
 Alpha virt. eigenvalues --    0.49319   0.49605   0.49984   0.50251   0.50507
 Alpha virt. eigenvalues --    0.50829   0.51144   0.51391   0.51909   0.52590
 Alpha virt. eigenvalues --    0.52787   0.53099   0.54252   0.54619   0.55184
 Alpha virt. eigenvalues --    0.55857   0.56083   0.56561   0.57245   0.57868
 Alpha virt. eigenvalues --    0.58360   0.58809   0.59355   0.59510   0.59707
 Alpha virt. eigenvalues --    0.60423   0.61173   0.61828   0.62449   0.62619
 Alpha virt. eigenvalues --    0.63062   0.63343   0.63718   0.64086   0.64480
 Alpha virt. eigenvalues --    0.65269   0.65709   0.66247   0.66378   0.66492
 Alpha virt. eigenvalues --    0.67559   0.67701   0.67871   0.68354   0.68660
 Alpha virt. eigenvalues --    0.68917   0.69590   0.69839   0.69886   0.69909
 Alpha virt. eigenvalues --    0.70210   0.70374   0.70687   0.70974   0.71404
 Alpha virt. eigenvalues --    0.71598   0.71770   0.72118   0.72245   0.72291
 Alpha virt. eigenvalues --    0.72585   0.72709   0.73478   0.73518   0.73652
 Alpha virt. eigenvalues --    0.73815   0.74077   0.74221   0.74444   0.74747
 Alpha virt. eigenvalues --    0.75365   0.75830   0.76059   0.76327   0.76507
 Alpha virt. eigenvalues --    0.76653   0.76799   0.76837   0.76901   0.77446
 Alpha virt. eigenvalues --    0.77728   0.77845   0.78024   0.78267   0.78601
 Alpha virt. eigenvalues --    0.79099   0.79460   0.79907   0.80163   0.80401
 Alpha virt. eigenvalues --    0.80653   0.80803   0.81361   0.82120   0.82533
 Alpha virt. eigenvalues --    0.83040   0.83624   0.83904   0.84316   0.84482
 Alpha virt. eigenvalues --    0.85114   0.85547   0.85711   0.86007   0.86847
 Alpha virt. eigenvalues --    0.87227   0.87537   0.88195   0.88648   0.89030
 Alpha virt. eigenvalues --    0.89711   0.90010   0.90288   0.90563   0.91312
 Alpha virt. eigenvalues --    0.91533   0.92168   0.92473   0.93414   0.94590
 Alpha virt. eigenvalues --    0.94951   0.95437   0.95582   0.96206   0.96740
 Alpha virt. eigenvalues --    0.97226   0.97524   0.98825   0.99607   1.00105
 Alpha virt. eigenvalues --    1.01492   1.02151   1.02442   1.03633   1.04977
 Alpha virt. eigenvalues --    1.06134   1.07338   1.07661   1.08595   1.10411
 Alpha virt. eigenvalues --    1.10518   1.12413   1.13527   1.13747   1.15212
 Alpha virt. eigenvalues --    1.16132   1.16664   1.16791   1.18240   1.19132
 Alpha virt. eigenvalues --    1.20595   1.21410   1.22099   1.23215   1.24265
 Alpha virt. eigenvalues --    1.24990   1.25470   1.26249   1.26929   1.27188
 Alpha virt. eigenvalues --    1.27270   1.27869   1.28871   1.30773   1.31357
 Alpha virt. eigenvalues --    1.32445   1.33166   1.33887   1.34296   1.36487
 Alpha virt. eigenvalues --    1.37388   1.38319   1.39782   1.41296   1.43677
 Alpha virt. eigenvalues --    1.44513   1.45525   1.46202   1.46950   1.48095
 Alpha virt. eigenvalues --    1.48440   1.49527   1.49757   1.50136   1.51268
 Alpha virt. eigenvalues --    1.51723   1.52495   1.53423   1.55101   1.57316
 Alpha virt. eigenvalues --    1.60912   1.61943   1.62603   1.63526   1.67516
 Alpha virt. eigenvalues --    1.68901   1.70496   1.70990   1.74134   1.75476
 Alpha virt. eigenvalues --    1.75887   1.77524   1.78847   1.79277   1.80965
 Alpha virt. eigenvalues --    1.81686   1.82168   1.83124   1.83431   1.85389
 Alpha virt. eigenvalues --    1.86602   1.87669   1.88083   1.88699   1.89157
 Alpha virt. eigenvalues --    1.89762   1.90705   1.90845   1.91521   1.92171
 Alpha virt. eigenvalues --    1.92628   1.93481   1.93709   1.94315   1.94685
 Alpha virt. eigenvalues --    1.95208   1.95505   1.95622   1.97563   1.98342
 Alpha virt. eigenvalues --    1.98413   1.99241   2.00412   2.01603   2.01768
 Alpha virt. eigenvalues --    2.03429   2.04215   2.04994   2.05202   2.05374
 Alpha virt. eigenvalues --    2.06589   2.07189   2.07315   2.08026   2.08635
 Alpha virt. eigenvalues --    2.09154   2.09549   2.09989   2.10280   2.12169
 Alpha virt. eigenvalues --    2.12423   2.13793   2.14958   2.15458   2.15860
 Alpha virt. eigenvalues --    2.16150   2.16504   2.16974   2.17667   2.18371
 Alpha virt. eigenvalues --    2.18866   2.19804   2.20468   2.21749   2.22146
 Alpha virt. eigenvalues --    2.22733   2.24047   2.24352   2.24899   2.26289
 Alpha virt. eigenvalues --    2.26817   2.28536   2.29566   2.30216   2.30810
 Alpha virt. eigenvalues --    2.31109   2.31389   2.31852   2.32484   2.33025
 Alpha virt. eigenvalues --    2.33318   2.34659   2.37845   2.38981   2.43934
 Alpha virt. eigenvalues --    2.45448   2.45845   2.46408   2.47257   2.47756
 Alpha virt. eigenvalues --    2.47944   2.48670   2.49174   2.49270   2.49941
 Alpha virt. eigenvalues --    2.50277   2.50812   2.51252   2.51359   2.51625
 Alpha virt. eigenvalues --    2.53050   2.53860   2.55125   2.56656   2.61843
 Alpha virt. eigenvalues --    2.64169   2.65075   2.66077   2.66629   2.67611
 Alpha virt. eigenvalues --    2.68329   2.69404   2.69627   2.69766   2.70783
 Alpha virt. eigenvalues --    2.71464   2.72224   2.73559   2.73953   2.74094
 Alpha virt. eigenvalues --    2.74805   2.76045   2.77355   2.79722   2.88897
 Alpha virt. eigenvalues --    2.89163   2.92147   2.93677   2.99427   3.00657
 Alpha virt. eigenvalues --    3.02092   3.03946   3.34793   3.36188
          Condensed to atoms (all electrons):
 Mulliken charges:
               1
     1  C   -0.104896
     2  C   -0.087349
     3  C   -0.067891
     4  C   -0.082459
     5  C   -0.096084
     6  H    0.141649
     7  H    0.107293
     8  H    0.116079
     9  H    0.114043
    10  H    0.112704
    11  Fe  -0.219861
    12  C   -0.101515
    13  C   -0.047180
    14  C   -0.171753
    15  C   -0.092586
    16  C   -0.038977
    17  H    0.107068
    18  H    0.122820
    19  H    0.109206
    20  C   -0.320128
    21  H    0.155496
    22  P    0.411896
    23  C   -0.340059
    24  H    0.151762
    25  H    0.150139
    26  H    0.137735
    27  P    0.346155
    28  C   -0.419637
    29  C   -0.427802
    30  C   -0.293970
    31  H    0.153998
    32  H    0.108539
    33  H    0.131725
    34  C   -0.290804
    35  H    0.117879
    36  H    0.141550
    37  H    0.144149
    38  C   -0.342158
    39  H    0.115032
    40  H    0.208507
    41  H    0.153959
    42  C   -0.317416
    43  H    0.141299
    44  H    0.123064
    45  H    0.153828
    46  C   -0.271145
    47  H    0.129773
    48  H    0.128935
    49  H    0.115412
    50  C   -0.287865
    51  H    0.109264
    52  H    0.133407
    53  H    0.139361
    54  C   -0.136462
    55  C   -0.130231
    56  C   -0.118118
    57  C   -0.089612
    58  H    0.122704
    59  C   -0.098452
    60  H    0.121438
    61  C   -0.092850
    62  H    0.098124
    63  H    0.099589
    64  H    0.102021
    65  C   -0.125461
    66  C   -0.155901
    67  C   -0.158703
    68  C   -0.082517
    69  H    0.114045
    70  C   -0.084995
    71  H    0.125419
    72  C   -0.100091
    73  H    0.092967
    74  H    0.091349
    75  H    0.093551
 Sum of Mulliken charges =  -0.00000
 Mulliken charges with hydrogens summed into heavy atoms:
               1
     1  C    0.036753
     2  C    0.019944
     3  C    0.048188
     4  C    0.031584
     5  C    0.016619
    11  Fe  -0.219861
    12  C    0.005553
    13  C   -0.047180
    14  C   -0.171753
    15  C    0.030234
    16  C    0.070229
    20  C   -0.164633
    22  P    0.411896
    23  C    0.099576
    27  P    0.346155
    28  C   -0.419637
    29  C   -0.427802
    30  C    0.100293
    34  C    0.112774
    38  C    0.135339
    42  C    0.100775
    46  C    0.102975
    50  C    0.094167
    54  C   -0.136462
    55  C   -0.007527
    56  C    0.003320
    57  C    0.008512
    59  C    0.001137
    61  C    0.009171
    65  C   -0.125461
    66  C   -0.041857
    67  C   -0.033284
    68  C    0.010450
    70  C    0.006354
    72  C   -0.006540
 Electronic spatial extent (au):  <R**2>=          16580.4102
 Charge=             -0.0000 electrons
 Dipole moment (field-independent basis, Debye):
    X=             -1.6640    Y=              0.6157    Z=             -0.5704  Tot=              1.8637
[...]
   349. RY*(   1) C  42                  0.00433     0.83267   
   350. RY*(   2) C  42                  0.00392     0.85713   
   351. RY*(   3) C  42                  0.00199     0.83921   
   352. RY*(   4) C  42                  0.00024     0.74482   
   353. RY*(   5) C  42                  0.00005     1.99064   
   354. RY*(   6) C  42                  0.00001     1.87519   
   355. RY*(   7) C  42                  0.00001     1.94293   
   356. RY*(   8) C  42                  0.00001     2.07423   
   357. RY*(   9) C  42                  0.00002     2.04401   
   358. RY*(   1) H  43                  0.00154     0.47041   
   359. RY*(   1) H  44                  0.00219     0.38758   
   360. RY*(   1) H  45                  0.00199     0.49682   
   361. RY*(   1) C  46                  0.00500     0.78343   
   362. RY*(   2) C  46                  0.00433     0.85181   
   363. RY*(   3) C  46                  0.00174     0.84397   
   364. RY*(   4) C  46                  0.00020     0.73282   
   365. RY*(   5) C  46                  0.00006     2.07927   
   366. RY*(   6) C  46                  0.00001     1.85644   
   367. RY*(   7) C  46                  0.00001     1.89700   
   368. RY*(   8) C  46                  0.00002     2.12515   
   369. RY*(   9) C  46                  0.00001     2.02812   
   370. RY*(   1) H  47                  0.00134     0.46726   
   371. RY*(   1) H  48                  0.00187     0.39090   
   372. RY*(   1) H  49                  0.00209     0.40009   
   373. RY*(   1) C  50                  0.00442     0.86845   
   374. RY*(   2) C  50                  0.00397     0.83164   
   375. RY*(   3) C  50                  0.00225     0.80236   
   376. RY*(   4) C  50                  0.00024     0.76673   
   377. RY*(   5) C  50                  0.00006     1.96139   
   378. RY*(   6) C  50                  0.00002     1.94465   
   379. RY*(   7) C  50                  0.00002     1.94773   
   380. RY*(   8) C  50                  0.00002     2.12373   
   381. RY*(   9) C  50                  0.00001     2.01210   
   382. RY*(   1) H  51                  0.00265     0.39511   
   383. RY*(   1) H  52                  0.00139     0.49517   
   384. RY*(   1) H  53                  0.00139     0.48766   
   385. RY*(   1) C  54                  0.00697     1.21054   
   386. RY*(   2) C  54                  0.00438     0.85386   
   387. RY*(   3) C  54                  0.00264     0.79334   
   388. RY*(   4) C  54                  0.00148     0.74103   
   389. RY*(   5) C  54                  0.00073     1.93146   
   390. RY*(   6) C  54                  0.00042     2.36906   
   391. RY*(   7) C  54                  0.00028     1.92073   
   392. RY*(   8) C  54                  0.00018     2.13472   
   393. RY*(   9) C  54                  0.00004     2.18452   
   394. RY*(   1) C  55                  0.00722     1.15567   
   395. RY*(   2) C  55                  0.00370     0.74794   
   396. RY*(   3) C  55                  0.00263     0.76806   
   397. RY*(   4) C  55                  0.00139     0.68528   
   398. RY*(   5) C  55                  0.00066     1.92774   
   399. RY*(   6) C  55                  0.00016     2.35472   
   400. RY*(   7) C  55                  0.00010     2.26508   
   401. RY*(   8) C  55                  0.00006     1.84437   
   402. RY*(   9) C  55                  0.00004     2.14732   
   403. RY*(   1) C  56                  0.00788     1.17872   
   404. RY*(   2) C  56                  0.00286     0.73562   
   405. RY*(   3) C  56                  0.00116     1.03076   
   406. RY*(   4) C  56                  0.00099     0.66856   
   407. RY*(   5) C  56                  0.00052     1.53885   
   408. RY*(   6) C  56                  0.00016     2.30732   
   409. RY*(   7) C  56                  0.00005     2.28679   
   410. RY*(   8) C  56                  0.00003     2.13973   
   411. RY*(   9) C  56                  0.00001     1.79469   
   412. RY*(   1) C  57                  0.00568     1.19206   
   413. RY*(   2) C  57                  0.00283     0.68288   
   414. RY*(   3) C  57                  0.00104     0.65593   
   415. RY*(   4) C  57                  0.00079     0.75487   
   416. RY*(   5) C  57                  0.00072     1.86242   
   417. RY*(   6) C  57                  0.00015     2.33141   
   418. RY*(   7) C  57                  0.00006     2.18245   
   419. RY*(   8) C  57                  0.00001     1.78381   
   420. RY*(   9) C  57                  0.00001     2.07878   
   421. RY*(   1) H  58                  0.00207     0.44787   
   422. RY*(   1) C  59                  0.00567     1.18773   
   423. RY*(   2) C  59                  0.00274     0.68086   
   424. RY*(   3) C  59                  0.00081     0.72923   
   425. RY*(   4) C  59                  0.00073     1.87732   
   426. RY*(   5) C  59                  0.00065     0.69571   
   427. RY*(   6) C  59                  0.00015     2.33177   
   428. RY*(   7) C  59                  0.00005     2.15819   
   429. RY*(   8) C  59                  0.00000     1.79486   
   430. RY*(   9) C  59                  0.00001     2.02148   
   431. RY*(   1) H  60                  0.00208     0.48395   
   432. RY*(   1) C  61                  0.00528     1.19595   
   433. RY*(   2) C  61                  0.00279     0.67865   
   434. RY*(   3) C  61                  0.00095     0.67611   
   435. RY*(   4) C  61                  0.00075     1.83320   
   436. RY*(   5) C  61                  0.00072     0.73809   
   437. RY*(   6) C  61                  0.00015     2.32795   
   438. RY*(   7) C  61                  0.00005     2.18732   
   439. RY*(   8) C  61                  0.00000     1.89747   
   440. RY*(   9) C  61                  0.00001     1.90903   
   441. RY*(   1) H  62                  0.00175     0.33086   
   442. RY*(   1) H  63                  0.00167     0.32451   
   443. RY*(   1) H  64                  0.00168     0.32344   
   444. RY*(   1) C  65                  0.00663     1.21917   
   445. RY*(   2) C  65                  0.00314     0.93993   
   446. RY*(   3) C  65                  0.00252     0.67874   
   447. RY*(   4) C  65                  0.00156     1.03599   
   448. RY*(   5) C  65                  0.00076     1.92187   
   449. RY*(   6) C  65                  0.00030     1.84695   
   450. RY*(   7) C  65                  0.00026     2.37815   
   451. RY*(   8) C  65                  0.00015     1.90673   
   452. RY*(   9) C  65                  0.00002     2.18413   
   453. RY*(   1) C  66                  0.00699     1.17894   
   454. RY*(   2) C  66                  0.00306     0.77057   
   455. RY*(   3) C  66                  0.00149     0.76542   
   456. RY*(   4) C  66                  0.00104     0.81237   
   457. RY*(   5) C  66                  0.00057     1.68694   
   458. RY*(   6) C  66                  0.00014     2.29780   
   459. RY*(   7) C  66                  0.00007     2.29584   
   460. RY*(   8) C  66                  0.00002     2.11959   
   461. RY*(   9) C  66                  0.00003     1.82590   
   462. RY*(   1) C  67                  0.00709     1.19370   
   463. RY*(   2) C  67                  0.00300     0.79294   
   464. RY*(   3) C  67                  0.00153     0.73549   
   465. RY*(   4) C  67                  0.00106     0.77824   
   466. RY*(   5) C  67                  0.00060     1.78211   
   467. RY*(   6) C  67                  0.00014     2.29541   
   468. RY*(   7) C  67                  0.00007     2.18035   
   469. RY*(   8) C  67                  0.00003     2.11629   
   470. RY*(   9) C  67                  0.00004     1.99786   
   471. RY*(   1) C  68                  0.00593     1.19134   
   472. RY*(   2) C  68                  0.00267     0.69194   
   473. RY*(   3) C  68                  0.00085     0.69753   
   474. RY*(   4) C  68                  0.00082     1.90134   
   475. RY*(   5) C  68                  0.00070     0.70067   
   476. RY*(   6) C  68                  0.00015     2.33940   
   477. RY*(   7) C  68                  0.00005     2.17051   
   478. RY*(   8) C  68                  0.00001     2.06200   
   479. RY*(   9) C  68                  0.00000     1.78021   
   480. RY*(   1) H  69                  0.00212     0.41763   
   481. RY*(   1) C  70                  0.00594     1.19135   
   482. RY*(   2) C  70                  0.00270     0.69530   
   483. RY*(   3) C  70                  0.00084     0.71242   
   484. RY*(   4) C  70                  0.00082     1.86731   
   485. RY*(   5) C  70                  0.00070     0.70864   
   486. RY*(   6) C  70                  0.00015     2.33804   
   487. RY*(   7) C  70                  0.00005     2.18805   
   488. RY*(   8) C  70                  0.00000     1.75423   
   489. RY*(   9) C  70                  0.00001     2.08813   
   490. RY*(   1) H  71                  0.00290     0.55205   
   491. RY*(   1) C  72                  0.00539     1.20356   
   492. RY*(   2) C  72                  0.00268     0.68951   
   493. RY*(   3) C  72                  0.00106     0.64242   
   494. RY*(   4) C  72                  0.00099     0.66718   
   495. RY*(   5) C  72                  0.00072     1.93825   
   496. RY*(   6) C  72                  0.00014     2.34173   
   497. RY*(   7) C  72                  0.00005     2.18615   
   498. RY*(   8) C  72                  0.00001     2.04808   
   499. RY*(   9) C  72                  0.00000     1.78957   
   500. RY*(   1) H  73                  0.00172     0.33456   
   501. RY*(   1) H  74                  0.00169     0.33563   
   502. RY*(   1) H  75                  0.00168     0.33298   
   515. BD*(   1) C  12 - C  13          0.04383     0.51209   
   516. BD*(   2) C  12 - C  13          0.48071     0.04052  522(v),148(v),515(g),146(r)
                                                    143(r),529(v),209(g),142(r)
                                                    207(g),527(v),535(r),220(g)
                                                    508(r),138(r),145(r),203(r)
                                                    206(r),505(r),144(r),178(r)
   517. BD*(   1) C  12 - C  16          0.02816     0.52720   
   518. BD*(   1) C  12 - H  17          0.01667     0.48685   
   519. BD*(   1) C  13 - C  14          0.03405     0.52341   
   520. BD*(   1) C  13 - C  20          0.03480     0.45621   
   521. BD*(   1) C  14 - C  15          0.04290     0.50064   
   522. BD*(   2) C  14 - C  15          0.53193     0.02962  516(v),148(v),521(g),563(r)
                                                    142(r),146(r),530(v),145(r)
                                                    143(r),523(g),236(g),235(g)
                                                    226(g),234(g),581(r),237(g)
                                                    505(r),229(g),144(r),204(r)
                                                    205(r),206(r),203(r)
   523. BD*(   1) C  14 - P  22          0.04243     0.28380   
   524. BD*(   1) C  15 - C  16          0.03193     0.52866   
   525. BD*(   1) C  15 - H  18          0.01693     0.49696   
   526. BD*(   1) C  16 - H  19          0.01615     0.49038   
   527. BD*(   1) C  20 - H  21          0.02094     0.46388   
   528. BD*(   1) C  20 - C  23          0.02195     0.41193   
   529. BD*(   1) C  20 - P  27          0.03942     0.21298   
   530. BD*(   1) P  22 - C  54          0.03730     0.27592   
   531. BD*(   1) P  22 - C  65          0.03470     0.27644   
   532. BD*(   1) C  23 - H  24          0.00778     0.47279   
   533. BD*(   1) C  23 - H  25          0.01349     0.47212   
   534. BD*(   1) C  23 - H  26          0.00952     0.46307   
   535. BD*(   1) P  27 - C  28          0.04738     0.21715   
   536. BD*(   1) P  27 - C  29          0.04736     0.21536   
   537. BD*(   1) C  28 - C  42          0.02173     0.39911   
   538. BD*(   1) C  28 - C  46          0.02184     0.40571   
   539. BD*(   1) C  28 - C  50          0.03097     0.40916   
   540. BD*(   1) C  29 - C  30          0.02947     0.41669   
   541. BD*(   1) C  29 - C  34          0.02194     0.41085   
   542. BD*(   1) C  29 - C  38          0.02271     0.41010   
   543. BD*(   1) C  30 - H  31          0.00846     0.48940   
   544. BD*(   1) C  30 - H  32          0.01390     0.46022   
   545. BD*(   1) C  30 - H  33          0.00759     0.47651   
   546. BD*(   1) C  34 - H  35          0.01156     0.46144   
   547. BD*(   1) C  34 - H  36          0.00830     0.47144   
   548. BD*(   1) C  34 - H  37          0.00852     0.47259   
   549. BD*(   1) C  38 - H  39          0.01175     0.46535   
   550. BD*(   1) C  38 - H  40          0.00750     0.50176   
   551. BD*(   1) C  38 - H  41          0.00754     0.47420   
   552. BD*(   1) C  42 - H  43          0.00837     0.47391   
   553. BD*(   1) C  42 - H  44          0.01127     0.45981   
   554. BD*(   1) C  42 - H  45          0.00863     0.46485   
   555. BD*(   1) C  46 - H  47          0.00796     0.48393   
   556. BD*(   1) C  46 - H  48          0.00763     0.48685   
   557. BD*(   1) C  46 - H  49          0.01046     0.45906   
   558. BD*(   1) C  50 - H  51          0.01374     0.45702   
   559. BD*(   1) C  50 - H  52          0.00857     0.48612   
   560. BD*(   1) C  50 - H  53          0.00797     0.46883   
   561. BD*(   1) C  54 - C  55          0.03244     0.59092   
   562. BD*(   1) C  54 - C  56          0.02676     0.59060   
   563. BD*(   2) C  54 - C  56          0.35225     0.03648  572(v),565(v),522(r),405(g)
                                                    523(v),388(g),576(r),426(v)
                                                    531(v),505(r)
   564. BD*(   1) C  55 - C  57          0.02147     0.60315   
   565. BD*(   2) C  55 - C  57          0.30856     0.04155  572(v),563(v),576(r),415(g)
                                                    508(r),414(g),396(g),397(g)
                                                    505(r),398(g)
   566. BD*(   1) C  55 - H  58          0.01695     0.48500   
   567. BD*(   1) C  56 - C  59          0.01976     0.59848   
   568. BD*(   1) C  56 - H  60          0.01746     0.48824   
   569. BD*(   1) C  57 - C  61          0.01859     0.59285   
   570. BD*(   1) C  57 - H  62          0.01532     0.48171   
   571. BD*(   1) C  59 - C  61          0.01844     0.59465   
   572. BD*(   2) C  59 - C  61          0.32423     0.03911  565(v),563(v),436(g),426(g)
                                                    425(g)
   573. BD*(   1) C  59 - H  63          0.01482     0.48219   
   574. BD*(   1) C  61 - H  64          0.01472     0.48213   
   575. BD*(   1) C  65 - C  66          0.02607     0.59747   
   576. BD*(   2) C  65 - C  66          0.38766     0.04250  584(v),581(v),565(r),455(g)
                                                    447(g),475(v),563(r),523(v)
                                                    464(v),456(g)
   577. BD*(   1) C  65 - C  67          0.02560     0.59338   
   578. BD*(   1) C  66 - C  68          0.01976     0.61065   
   579. BD*(   1) C  66 - H  69          0.01687     0.49534   
   580. BD*(   1) C  67 - C  70          0.01965     0.61509   
   581. BD*(   2) C  67 - C  70          0.31857     0.05361  584(v),576(v),485(g),464(g)
                                                    466(g),484(g)
   582. BD*(   1) C  67 - H  71          0.01659     0.50467   
   583. BD*(   1) C  68 - C  72          0.01840     0.61004   
   584. BD*(   2) C  68 - C  72          0.33684     0.05250  581(v),576(v),493(g),475(g)
                                                    474(g),485(v)
   585. BD*(   1) C  68 - H  73          0.01477     0.49100   
   586. BD*(   1) C  70 - C  72          0.01847     0.60586   
   587. BD*(   1) C  70 - H  74          0.01473     0.49048   
   588. BD*(   1) C  72 - H  75          0.01488     0.49192   
       -------------------------------
              Total Lewis  222.21515  ( 97.8705%)
        Valence non-Lewis    4.36935  (  1.9244%)
        Rydberg non-Lewis    0.46575  (  0.2051%)
       -------------------------------
            Total unit  3  227.05025  (100.0000%)
           Charge unit  3   -0.05025


 NATURAL LOCALIZED MOLECULAR ORBITAL (NLMO) ANALYSIS:

 Highest occupied NBOs are not at the beginning of the NBO list;
 The NLMO program is not currently set up to handle this.
 Leave Link  607 at Sat Aug 12 03:43:59 2023, MaxMem=  4026531840 cpu:              90.7 elap:               3.0
 (Enter /sw/arch/Centos8/EB_production/2021/software/Gaussian/g16.c01/l9999.exe)
 Unable to Open any file for archive entry.
 1\1\GINC-TCN263\SP\RPBE1PBE\def2SVPP\C32H40Fe1P2\ADARSH\12-Aug-2023\0\
 \#p pop=nbo NMR pbe1pbe/def2svpp empiricaldispersion=gd3bj integral=gr
 id=ultrafinegrid scf=(xqc,maxconventionalcycles=90) nosymm\\Cisa\\0,1\
 C,0,-3.57383,-0.87738,-1.27068\C,0,-4.29526,-1.37863,-0.14774\C,0,-5.1
 2858,-0.33359,0.34264\C,0,-4.92124,0.81485,-0.47321\C,0,-3.96423,0.474
 78,-1.47261\H,0,-2.8462,-1.42826,-1.86588\H,0,-4.22025,-2.38097,0.2709
 3\H,0,-5.78662,-0.39222,1.20991\H,0,-5.3955,1.78782,-0.34243\H,0,-3.59
 366,1.13432,-2.25723\Fe,0,-3.16734,0.2378,0.41018\C,0,-2.3691,1.92937,
 1.2225\C,0,-1.35814,1.18941,0.53444\C,0,-1.29571,-0.11064,1.15006\C,0,
 -2.27504,-0.15485,2.1975\C,0,-2.92429,1.10693,2.2431\H,0,-2.70065,2.93
 882,0.98413\H,0,-2.47865,-1.01042,2.84021\H,0,-3.73954,1.38324,2.91158
 \C,0,-0.52658,1.67166,-0.62348\H,0,-0.51797,0.86127,-1.3743\P,0,0.0174
 3,-1.29401,0.81118\C,0,-1.18462,2.88976,-1.27185\H,0,-0.7712,3.11101,-
 2.26419\H,0,-2.25544,2.66994,-1.40718\H,0,-1.10807,3.79768,-0.65736\P,
 0,1.32375,1.75074,-0.17206\C,0,2.13693,2.64502,-1.64578\C,0,1.49018,2.
 76994,1.42545\C,0,0.55917,3.98174,1.48498\H,0,-0.49917,3.68287,1.48951
 \H,0,0.74787,4.52453,2.42953\H,0,0.72762,4.69107,0.6606\C,0,2.93551,3.
 24076,1.60617\H,0,3.03266,3.68421,2.61353\H,0,3.65537,2.4084,1.54418\H
 ,0,3.2229,4.01888,0.88277\C,0,1.16136,1.82951,2.59275\H,0,1.32373,2.36
 886,3.54418\H,0,0.11364,1.49387,2.57292\H,0,1.8191,0.93926,2.58613\C,0
 ,1.68921,1.8679,-2.89304\H,0,0.62274,1.99916,-3.13054\H,0,2.26458,2.22
 108,-3.76766\H,0,1.88213,0.78513,-2.77896\C,0,3.66701,2.55266,-1.58354
 \H,0,4.09458,3.03333,-0.69348\H,0,4.03174,1.52128,-1.63083\H,0,4.07544
 ,3.08081,-2.46396\C,0,1.79941,4.1358,-1.7705\H,0,2.20912,4.50672,-2.72
 789\H,0,0.72717,4.36253,-1.76473\H,0,2.27704,4.72349,-0.97024\C,0,-0.5
 7137,-2.40684,-0.5064\C,0,-1.59111,-3.3395,-0.27816\C,0,-0.02692,-2.27
 939,-1.78934\C,0,-2.05579,-4.13545,-1.32181\H,0,-2.02563,-3.44211,0.72
 019\C,0,-0.50529,-3.06582,-2.83744\H,0,0.78326,-1.55955,-1.95601\C,0,-
 1.51801,-3.99555,-2.60323\H,0,-2.84937,-4.86541,-1.13819\H,0,-0.08014,
 -2.9577,-3.83925\H,0,-1.89021,-4.6176,-3.42222\C,0,0.1175,-2.31239,2.3
 2418\C,0,0.31357,-3.69832,2.26951\C,0,0.17202,-1.66787,3.5703\C,0,0.54
 209,-4.42624,3.43774\H,0,0.28331,-4.22478,1.3122\C,0,0.39823,-2.39782,
 4.73388\H,0,0.0374,-0.58513,3.63401\C,0,0.58364,-3.78009,4.67117\H,0,0
 .68661,-5.50871,3.37885\H,0,0.43055,-1.88227,5.69791\H,0,0.76085,-4.35
 262,5.58595\\Version=ES64L-G16RevC.01\HF=-3186.7157581\RMSD=9.565e-09\
 Dipole=-0.6546784,0.2422401,-0.2244022\Quadrupole=-6.4459277,3.5178889
 ,2.9280388,1.5033458,-4.4300365,0.9429313\PG=C01 [X(C32H40Fe1P2)]\\@
 The archive entry for this job was punched.


 ANYONE WHO IS NOT SHOCKED BY QUANTUM THEORY HAS
 NOT UNDERSTOOD IT. -- NIELS BOHR(1885-1962)
 Job cpu time:       0 days  2 hours  2 minutes 46.0 seconds.
 Elapsed time:       0 days  0 hours  5 minutes  2.9 seconds.
 File lengths (MBytes):  RWF=    432 Int=      0 D2E=      0 Chk=     32 Scr=     32
 Normal termination of Gaussian 16 at Sat Aug 12 03:43:59 2023.
