      -----------------------------------------------------------      
     |                   =====================                   |     
     |                           x T B                           |     
     |                   =====================                   |     
     |                         S. Grimme                         |     
     |          Mulliken Center for Theoretical Chemistry        |     
     |                    University of Bonn                     |     
      -----------------------------------------------------------      

   * xtb version 6.5.1 (579679a) compiled by 'ehlert@majestix' on 2022-07-11

   xtb is free software: you can redistribute it and/or modify it under
   the terms of the GNU Lesser General Public License as published by
   the Free Software Foundation, either version 3 of the License, or
   (at your option) any later version.
   
   xtb is distributed in the hope that it will be useful,
   but WITHOUT ANY WARRANTY; without even the implied warranty of
   MERCHANTABILITY or FITNESS FOR A PARTICULAR PURPOSE.  See the
   GNU Lesser General Public License for more details.
   
   Cite this work as:
   * C. Bannwarth, E. Caldeweyher, S. Ehlert, A. Hansen, P. Pracht,
     J. Seibert, S. Spicher, S. Grimme, WIREs Comput. Mol. Sci., 2020, 11,
     e01493. DOI: 10.1002/wcms.1493
   
   for GFN2-xTB:
   * C. Bannwarth, S. Ehlert and S. Grimme., J. Chem. Theory Comput., 2019,
     15, 1652-1671. DOI: 10.1021/acs.jctc.8b01176
   for GFN1-xTB:
   * S. Grimme, C. Bannwarth, P. Shushkov, J. Chem. Theory Comput., 2017,
     13, 1989-2009. DOI: 10.1021/acs.jctc.7b00118
   for GFN0-xTB:
   * P. Pracht, E. Caldeweyher, S. Ehlert, S. Grimme, ChemRxiv, 2019, preprint.
     DOI: 10.26434/chemrxiv.8326202.v1
   for GFN-FF:
   * S. Spicher and S. Grimme, Angew. Chem. Int. Ed., 2020, 59, 15665-15673.
     DOI: 10.1002/anie.202004239
   
   for ALPB and GBSA implicit solvation:
   * S. Ehlert, M. Stahn, S. Spicher, S. Grimme, J. Chem. Theory Comput.,
     2021, 17, 4250-4261. DOI: 10.1021/acs.jctc.1c00471
   
   for DFT-D4:
   * E. Caldeweyher, C. Bannwarth and S. Grimme, J. Chem. Phys., 2017,
     147, 034112. DOI: 10.1063/1.4993215
   * E. Caldeweyher, S. Ehlert, A. Hansen, H. Neugebauer, S. Spicher,
     C. Bannwarth and S. Grimme, J. Chem. Phys., 2019, 150, 154122.
     DOI: 10.1063/1.5090222
   * E. Caldeweyher, J.-M. Mewes, S. Ehlert and S. Grimme, Phys. Chem. Chem. Phys.
     2020, 22, 8499-8512. DOI: 10.1039/D0CP00502A
   
   for sTDA-xTB:
   * S. Grimme and C. Bannwarth, J. Chem. Phys., 2016, 145, 054103.
     DOI: 10.1063/1.4959605
   
   in the mass-spec context:
   * V. Asgeirsson, C. Bauer and S. Grimme, Chem. Sci., 2017, 8, 4879.
     DOI: 10.1039/c7sc00601b
   * J. Koopman and S. Grimme, ACS Omega 2019, 4, 12, 15120-15133.
     DOI: 10.1021/acsomega.9b02011
   
   for metadynamics refer to:
   * S. Grimme, J. Chem. Theory Comput., 2019, 155, 2847-2862
     DOI: 10.1021/acs.jctc.9b00143
   
   for SPH calculations refer to:
   * S. Spicher and S. Grimme, J. Chem. Theory Comput., 2021, 17, 1701-1714
     DOI: 10.1021/acs.jctc.0c01306
   
   with help from (in alphabetical order)
   P. Atkinson, C. Bannwarth, F. Bohle, G. Brandenburg, E. Caldeweyher
   M. Checinski, S. Dohm, S. Ehlert, S. Ehrlich, I. Gerasimov, C. Hölzer
   A. Katbashev, J. Koopman, C. Lavigne, S. Lehtola, F. März, M. Müller,
   F. Musil, H. Neugebauer, J. Pisarek, C. Plett, P. Pracht, F. Pultar,
   J. Seibert, P. Shushkov, S. Spicher, M. Stahn, M. Steiner, T. Strunk,
   J. Stückrath, T. Rose, and J. Unsleber
   
 * started run on 2022/10/30 at 22:21:03.988     

           -------------------------------------------------
          |                Calculation Setup                |
           -------------------------------------------------

          program call               : xtb [Ir+3]_1228758-57-3_SP2.xyz --gfn2 --chrg 0 --uhf 1 --alpb ch2cl2 --opt 1
          hostname                   : cmp002
          coordinate file            : [Ir+3]_1228758-57-3_SP2.xyz
          omp threads                :                     8

   ID    Z sym.   atoms
    1    6 C      1, 3-8, 10-13, 16-21, 23-27, 29, 30
    2    8 O      2, 22, 28, 31
    3   15 P      9, 15
    4   77 Ir     14
    5    1 H      32-63

molecular fragmentation (1/2 indicates fragments):
111111111111111111111121111111111111111111111111111111122211111
# atoms in fragment 1/2:    59     4
 fragment masses (1/2) :      623.64       15.03
CMA distance (Bohr)    :   8.412
constraining FC (au)   :  0.0500

           -------------------------------------------------
          |                 G F N 2 - x T B                 |
           -------------------------------------------------

        Reference                      10.1021/acs.jctc.8b01176
      * Hamiltonian:
        H0-scaling (s, p, d)           1.850000    2.230000    2.230000
        zeta-weighting                 0.500000
      * Dispersion:
        s8                             2.700000
        a1                             0.520000
        a2                             5.000000
        s9                             5.000000
      * Repulsion:
        kExp                           1.500000    1.000000
        rExp                           1.000000
      * Coulomb:
        alpha                          2.000000
        third order                    shell-resolved
        anisotropic                    true
        a3                             3.000000
        a5                             4.000000
        cn-shift                       1.200000
        cn-exp                         4.000000
        max-rad                        5.000000

      * Solvation model:               ALPB
        Solvent                        ch2cl2
        Parameter file                 internal GFN2-xTB/ALPB
        Dielectric constant                8.9300E+00
        Reference state                gsolv [1 M gas/solution]
        Free energy shift                  4.1487E-03 Eh       2.6033E+00 kcal/mol
        Temperature                        2.9815E+02 K
        Density                            1.3300E+00 kg/L
        Solvent mass                       8.4930E+01 g/mol
        Interaction kernel             P16
        Born radius scaling (c1)           1.5691E+00
        Born radii integrator          GBOBC
        Born offset                        0.0000E+00 a0       0.0000E+00 AA
        H-bond correction              false
        Ion screening                  false
        Surface tension                    1.0000E-05 Eh       1.5569E+01 dyn/cm
        Grid points                               230 per atom

          ...................................................
          :                      SETUP                      :
          :.................................................:
          :  # basis functions                 174          :
          :  # atomic orbitals                 171          :
          :  # shells                           97          :
          :  # electrons                       171          :
          :  max. iterations                   250          :
          :  Hamiltonian                  GFN2-xTB          :
          :  restarted?                      false          :
          :  GBSA solvation                   true          :
          :  PC potential                    false          :
          :  electronic temp.          300.0000000     K    :
          :  accuracy                    1.0000000          :
          :  -> integral cutoff          0.2500000E+02      :
          :  -> integral neglect         0.1000000E-07      :
          :  -> SCF convergence          0.1000000E-05 Eh   :
          :  -> wf. convergence          0.1000000E-03 e    :
          :  Broyden damping             0.4000000          :
          ...................................................

 iter      E             dE          RMSdq      gap      omega  full diag
   1    -92.6888605 -0.926889E+02  0.645E+00    0.83       0.0  T
   2    -79.8275889  0.128613E+02  0.110E+01    0.00       1.0  T
   3    -92.2259429 -0.123984E+02  0.510E+00    2.12       1.0  T
   4    -92.8746507 -0.648708E+00  0.377E+00    1.81       1.0  T
   5    -93.1236670 -0.249016E+00  0.290E+00    1.49       1.0  T
   6    -93.4219770 -0.298310E+00  0.216E+00    1.13       1.0  T
   7    -93.6157817 -0.193805E+00  0.150E+00    0.67       1.0  T
   8    -93.6900897 -0.743080E-01  0.109E+00    0.48       1.0  T
   9    -93.7464799 -0.563902E-01  0.607E-01    0.35       1.0  T
  10    -93.7711037 -0.246238E-01  0.254E-01    0.26       1.0  T
  11    -93.7723169 -0.121319E-02  0.173E-01    0.25       1.0  T
  12    -93.7659729  0.634400E-02  0.292E-01    0.26       1.0  T
  13    -93.7717917 -0.581885E-02  0.139E-01    0.26       1.0  T
  14    -93.7714006  0.391110E-03  0.111E-01    0.25       1.0  T
  15    -93.7724203 -0.101968E-02  0.552E-02    0.25       1.0  T
  16    -93.7725126 -0.923153E-04  0.302E-02    0.25       1.0  T
  17    -93.7725556 -0.429848E-04  0.144E-02    0.25       1.0  T
  18    -93.7725666 -0.110080E-04  0.586E-03    0.25       2.1  T
  19    -93.7725682 -0.154970E-05  0.267E-03    0.25       4.7  T
  20    -93.7725679  0.229247E-06  0.210E-03    0.25       6.0  T
  21    -93.7725682 -0.303544E-06  0.687E-04    0.25      18.3  T
  22    -93.7725682  0.187106E-08  0.695E-04    0.25      18.1  T

   *** convergence criteria satisfied after 22 iterations ***

         #    Occupation            Energy/Eh            Energy/eV
      -------------------------------------------------------------
         1        2.0000           -0.7247840             -19.7224
       ...           ...                  ...                  ...
        80        2.0000           -0.3596050              -9.7854
        81        2.0000           -0.3590003              -9.7689
        82        2.0000           -0.3122914              -8.4979
        83        2.0000           -0.3033998              -8.2559
        84        2.0000           -0.2942433              -8.0068
        85        1.9999           -0.2847721              -7.7490
        86        0.9922           -0.2679131              -7.2903 (HOMO)
        87        0.0077           -0.2587024              -7.0397 (LUMO)
        88        0.0002           -0.2554083              -6.9500
        89        0.0000           -0.2493173              -6.7843
        90                         -0.2352535              -6.4016
        91                         -0.2322772              -6.3206
       ...                                ...                  ...
       171                          3.5042813              95.3563
      -------------------------------------------------------------
                  HL-Gap            0.0092107 Eh            0.2506 eV
             Fermi-level           -0.2698326 Eh           -7.3425 eV

 SCC (total)                   0 d,  0 h,  0 min,  0.180 sec
 SCC setup                      ...        0 min,  0.002 sec (  1.346%)
 Dispersion                     ...        0 min,  0.001 sec (  0.549%)
 classical contributions        ...        0 min,  0.000 sec (  0.036%)
 integral evaluation            ...        0 min,  0.006 sec (  3.089%)
 iterations                     ...        0 min,  0.158 sec ( 88.255%)
 molecular gradient             ...        0 min,  0.011 sec (  6.254%)
 printout                       ...        0 min,  0.001 sec (  0.457%)

         :::::::::::::::::::::::::::::::::::::::::::::::::::::
         ::                     SUMMARY                     ::
         :::::::::::::::::::::::::::::::::::::::::::::::::::::
         :: total energy             -92.140210969184 Eh    ::
         :: total w/o Gsasa/hb       -92.105958617680 Eh    ::
         :: gradient norm              1.332352709229 Eh/a0 ::
         :: HOMO-LUMO gap              0.250635610730 eV    ::
         ::.................................................::
         :: SCC energy               -93.772568229240 Eh    ::
         :: -> isotropic ES            0.119913810204 Eh    ::
         :: -> anisotropic ES          0.012589163158 Eh    ::
         :: -> anisotropic XC          0.033810850051 Eh    ::
         :: -> dispersion             -0.096900638451 Eh    ::
         :: -> Gsolv                  -0.052188828209 Eh    ::
         ::    -> Gelec               -0.017936476704 Eh    ::
         ::    -> Gsasa               -0.038401048866 Eh    ::
         ::    -> Ghb                  0.000000000000 Eh    ::
         ::    -> Gshift               0.004148697361 Eh    ::
         :: repulsion energy           1.628798970563 Eh    ::
         :: add. restraining           0.000000000000 Eh    ::
         :: total charge               0.000000000006 e     ::
         :::::::::::::::::::::::::::::::::::::::::::::::::::::

      ----------------------------------------------------------- 
     |                   =====================                   |
     |                        A N C O P T                        |
     |                   =====================                   |
     |               Approximate Normal Coordinate               |
     |                Rational Function Optimizer                |
      ----------------------------------------------------------- 

          ...................................................
          :                      SETUP                      :
          :.................................................:
          :   optimization level             tight          :
          :   max. optcycles                   315          :
          :   ANC micro-cycles                  20          :
          :   degrees of freedom               183          :
          :.................................................:
          :   RF solver                   davidson          :
          :   write xtbopt.log                true          :
          :   linear?                        false          :
          :   energy convergence         0.1000000E-05 Eh   :
          :   grad. convergence          0.8000000E-03 Eh/α :
          :   maximium RF displ.         1.0000000          :
          :   Hlow (freq-cutoff)         0.1000000E-01      :
          :   Hmax (freq-cutoff)         5.0000000          :
          :   S6 in model hess.         20.0000000          :
          ...................................................

generating ANC from model Hessian ...
Using Lindh-Hessian (1995)
 Shifting diagonal of input Hessian by   9.855662768191964E-003
 Lowest  eigenvalues of input Hessian
    0.000000    0.000000    0.000000    0.000000    0.000000    0.000000
    0.010000    0.010070    0.010494    0.010778    0.010795    0.010839
    0.011081    0.011639    0.011643    0.012310    0.012578    0.013908
 Highest eigenvalues
    2.060427    2.061726    2.989164    2.995284    3.657218    3.660333
 

........................................................................
.............................. CYCLE    1 ..............................
........................................................................
   1    -93.7725682 -0.937726E+02  0.657E-04    0.25       0.0  T
   2    -93.7725679  0.343988E-06  0.218E-03    0.25       5.8  T
   3    -93.7725682 -0.358711E-06  0.290E-04    0.25      43.5  T
   4    -93.7725682 -0.360913E-08  0.197E-04    0.25      63.9  T
     SCC iter.                  ...        0 min,  0.019 sec
     gradient                   ...        0 min,  0.011 sec
 * total energy  :   -92.1402110 Eh     change       -0.1315665E-07 Eh
   gradient norm :     1.3323476 Eh/α   predicted     0.0000000E+00 (-100.00%)
   displ. norm   :     0.4963851 α      lambda       -0.5741521E+00
   maximum displ.:     0.2197318 α      in ANC's #180, #183, #133, ...

........................................................................
.............................. CYCLE    2 ..............................
........................................................................
   1    -93.8528526 -0.938529E+02  0.612E-01    0.22       0.0  T
   2    -93.8467277  0.612491E-02  0.479E-01    0.24       1.0  T
   3    -93.8191758  0.275519E-01  0.690E-01    0.17       1.0  T
   4    -93.8536546 -0.344788E-01  0.257E-01    0.23       1.0  T
   5    -93.8552260 -0.157140E-02  0.114E-01    0.20       1.0  T
   6    -93.8502252  0.500078E-02  0.206E-01    0.23       1.0  T
   7    -93.8531562 -0.293102E-02  0.150E-01    0.23       1.0  T
   8    -93.8557886 -0.263239E-02  0.406E-02    0.21       1.0  T
   9    -93.8557949 -0.632234E-05  0.260E-02    0.21       1.0  T
  10    -93.8558113 -0.163965E-04  0.145E-02    0.21       1.0  T
  11    -93.8558182 -0.688766E-05  0.792E-03    0.21       1.6  T
  12    -93.8558201 -0.194690E-05  0.254E-03    0.21       5.0  T
  13    -93.8558202 -0.261774E-07  0.204E-03    0.21       6.2  T
  14    -93.8558200  0.180542E-06  0.218E-03    0.21       5.8  T
  15    -93.8558203 -0.280804E-06  0.883E-04    0.21      14.3  T
  16    -93.8558203 -0.261476E-07  0.271E-04    0.21      46.6  T
     SCC iter.                  ...        0 min,  0.068 sec
     gradient                   ...        0 min,  0.011 sec
 * total energy  :   -92.5167884 Eh     change       -0.3765774E+00 Eh
   gradient norm :     0.5000864 Eh/α   predicted    -0.3578592E+00 (  -4.97%)
   displ. norm   :     0.5134356 α      lambda       -0.1746844E+00
   maximum displ.:     0.1803629 α      in ANC's #63, #180, #133, ...

........................................................................
.............................. CYCLE    3 ..............................
........................................................................
   1    -93.9101510 -0.939102E+02  0.502E-01    0.30       0.0  T
   2    -93.8933450  0.168060E-01  0.580E-01    0.23       1.0  T
   3    -93.8994127 -0.606764E-02  0.479E-01    0.34       1.0  T
   4    -93.9148512 -0.154385E-01  0.221E-01    0.27       1.0  T
   5    -93.9159378 -0.108658E-02  0.123E-01    0.27       1.0  T
   6    -93.9163428 -0.404990E-03  0.762E-02    0.28       1.0  T
   7    -93.9158889  0.453811E-03  0.840E-02    0.28       1.0  T
   8    -93.9165001 -0.611153E-03  0.352E-02    0.28       1.0  T
   9    -93.9166001 -0.999505E-04  0.979E-03    0.28       1.3  T
  10    -93.9166004 -0.337109E-06  0.636E-03    0.28       2.0  T
  11    -93.9166000  0.426107E-06  0.451E-03    0.28       2.8  T
  12    -93.9166010 -0.106221E-05  0.247E-03    0.28       5.1  T
  13    -93.9166013 -0.321592E-06  0.112E-03    0.28      11.3  T
  14    -93.9166014 -0.364750E-07  0.469E-04    0.28      26.8  T
  15    -93.9166014 -0.811724E-09  0.255E-04    0.28      49.4  T
     SCC iter.                  ...        0 min,  0.076 sec
     gradient                   ...        0 min,  0.011 sec
 * total energy  :   -92.6525525 Eh     change       -0.1357642E+00 Eh
   gradient norm :     0.2663675 Eh/α   predicted    -0.1103671E+00 ( -18.71%)
   displ. norm   :     0.6449405 α      lambda       -0.1237321E+00
   maximum displ.:     0.2564846 α      in ANC's #63, #61, #180, ...

........................................................................
.............................. CYCLE    4 ..............................
........................................................................
   1    -93.9605668 -0.939606E+02  0.593E-01    0.25       0.0  T
   2    -93.9414844  0.190824E-01  0.839E-01    0.24       1.0  T
   3    -93.9486484 -0.716409E-02  0.594E-01    0.23       1.0  T
   4    -93.9627103 -0.140619E-01  0.310E-01    0.25       1.0  T
   5    -93.9656432 -0.293286E-02  0.232E-01    0.25       1.0  T
   6    -93.9673498 -0.170665E-02  0.101E-01    0.25       1.0  T
   7    -93.9675953 -0.245464E-03  0.673E-02    0.26       1.0  T
   8    -93.9678966 -0.301360E-03  0.304E-02    0.26       1.0  T
   9    -93.9679559 -0.592682E-04  0.937E-03    0.26       1.3  T
  10    -93.9679566 -0.666840E-06  0.968E-03    0.26       1.3  T
  11    -93.9679577 -0.109383E-05  0.434E-03    0.26       2.9  T
  12    -93.9679586 -0.922877E-06  0.146E-03    0.26       8.7  T
  13    -93.9679587 -0.503685E-07  0.102E-03    0.26      12.3  T
  14    -93.9679587  0.727297E-09  0.813E-04    0.26      15.5  T
  15    -93.9679587 -0.769535E-08  0.495E-04    0.26      25.5  T
     SCC iter.                  ...        0 min,  0.071 sec
     gradient                   ...        0 min,  0.011 sec
 * total energy  :   -92.7477379 Eh     change       -0.9518541E-01 Eh
   gradient norm :     0.1221452 Eh/α   predicted    -0.8760023E-01 (  -7.97%)
   displ. norm   :     0.7690287 α      lambda       -0.8300436E-01
   maximum displ.:     0.3260644 α      in ANC's #63, #47, #40, ...

........................................................................
.............................. CYCLE    5 ..............................
........................................................................
   1    -93.9411651 -0.939412E+02  0.130E+00    0.28       0.0  T
   2    -91.3899271  0.255124E+01  0.591E+00    0.25       1.0  T
   3    -93.9221937 -0.253227E+01  0.164E+00    0.21       1.0  T
   4    -93.9655588 -0.433652E-01  0.703E-01    0.19       1.0  T
   5    -93.9828840 -0.173252E-01  0.317E-01    0.13       1.0  T
   6    -93.9865097 -0.362571E-02  0.318E-01    0.12       1.0  T
   7    -93.9857235  0.786166E-03  0.262E-01    0.13       1.0  T
   8    -93.9875429 -0.181937E-02  0.241E-01    0.12       1.0  T
   9    -93.9878554 -0.312549E-03  0.202E-01    0.12       1.0  T
  10    -93.9879422 -0.867661E-04  0.180E-01    0.12       1.0  T
  11    -93.9879837 -0.414681E-04  0.164E-01    0.12       1.0  T
  12    -93.9881209 -0.137271E-03  0.132E-01    0.12       1.0  T
  13    -93.9881514 -0.304465E-04  0.857E-02    0.12       1.0  T
  14    -93.9882080 -0.565779E-04  0.341E-02    0.12       1.0  T
  15    -93.9882136 -0.559435E-05  0.118E-02    0.12       1.1  T
  16    -93.9882140 -0.415969E-06  0.798E-03    0.12       1.6  T
  17    -93.9882145 -0.516088E-06  0.630E-03    0.12       2.0  T
  18    -93.9882146 -0.836718E-07  0.198E-03    0.12       6.4  T
  19    -93.9882146 -0.176404E-07  0.477E-04    0.12      26.4  T
  20    -93.9882146  0.294577E-09  0.391E-04    0.12      32.2  T
     SCC iter.                  ...        0 min,  0.088 sec
     gradient                   ...        0 min,  0.011 sec
 * total energy  :   -92.8107419 Eh     change       -0.6300397E-01 Eh
   gradient norm :     0.0814534 Eh/α   predicted    -0.6604681E-01 (   4.83%)
   displ. norm   :     0.7296888 α      lambda       -0.4358539E-01
   maximum displ.:     0.3644565 α      in ANC's #40, #63, #47, ...

........................................................................
.............................. CYCLE    6 ..............................
........................................................................
   1    -93.9954536 -0.939955E+02  0.785E-01    0.32       0.0  T
   2    -93.0787798  0.916674E+00  0.326E+00    0.29       1.0  T
   3    -93.9983874 -0.919608E+00  0.565E-01    0.23       1.0  T
   4    -94.0043686 -0.598123E-02  0.394E-01    0.20       1.0  T
   5    -94.0079841 -0.361556E-02  0.305E-01    0.16       1.0  T
   6    -94.0137853 -0.580115E-02  0.165E-01    0.10       1.0  T
   7    -94.0137471  0.381755E-04  0.943E-02    0.11       1.0  T
   8    -94.0141114 -0.364279E-03  0.480E-02    0.10       1.0  T
   9    -94.0141705 -0.591553E-04  0.151E-02    0.10       1.0  T
  10    -94.0141695  0.103417E-05  0.161E-02    0.09       1.0  T
  11    -94.0141727 -0.322862E-05  0.665E-03    0.09       1.9  T
  12    -94.0141744 -0.161681E-05  0.358E-03    0.09       3.5  T
  13    -94.0141751 -0.707333E-06  0.175E-03    0.09       7.2  T
  14    -94.0141752 -0.176527E-06  0.936E-04    0.09      13.5  T
  15    -94.0141753 -0.206800E-07  0.624E-04    0.09      20.2  T
     SCC iter.                  ...        0 min,  0.077 sec
     gradient                   ...        0 min,  0.011 sec
 * total energy  :   -92.8434851 Eh     change       -0.3274317E-01 Eh
   gradient norm :     0.0776385 Eh/α   predicted    -0.3339632E-01 (   1.99%)
   displ. norm   :     0.6808146 α      lambda       -0.3144909E-01
   maximum displ.:     0.3343130 α      in ANC's #40, #9, #63, ...

........................................................................
.............................. CYCLE    7 ..............................
........................................................................
   1    -94.0291696 -0.940292E+02  0.433E-01    0.31       0.0  T
   2    -93.7864955  0.242674E+00  0.191E+00    0.17       1.0  T
   3    -94.0240613 -0.237566E+00  0.406E-01    0.36       1.0  T
   4    -94.0315075 -0.744621E-02  0.260E-01    0.25       1.0  T
   5    -94.0303622  0.114534E-02  0.215E-01    0.26       1.0  T
   6    -94.0324609 -0.209865E-02  0.140E-01    0.20       1.0  T
   7    -94.0326815 -0.220679E-03  0.106E-01    0.19       1.0  T
   8    -94.0330620 -0.380434E-03  0.604E-02    0.17       1.0  T
   9    -94.0332570 -0.195052E-03  0.949E-03    0.15       1.3  T
  10    -94.0332531  0.388100E-05  0.105E-02    0.15       1.2  T
  11    -94.0332577 -0.459819E-05  0.203E-03    0.15       6.2  T
  12    -94.0332575  0.245630E-06  0.238E-03    0.15       5.3  T
  13    -94.0332577 -0.224726E-06  0.125E-03    0.15      10.1  T
  14    -94.0332577  0.398020E-07  0.133E-03    0.15       9.5  T
  15    -94.0332578 -0.799863E-07  0.343E-04    0.15      36.8  T
  16    -94.0332578 -0.677481E-08  0.438E-05    0.15     287.4  T
     SCC iter.                  ...        0 min,  0.072 sec
     gradient                   ...        0 min,  0.011 sec
 * total energy  :   -92.8661915 Eh     change       -0.2270643E-01 Eh
   gradient norm :     0.0555868 Eh/α   predicted    -0.2301302E-01 (   1.35%)
   displ. norm   :     0.6946811 α      lambda       -0.2128444E-01
   maximum displ.:     0.3957232 α      in ANC's #9, #40, #63, ...

........................................................................
.............................. CYCLE    8 ..............................
........................................................................
   1    -94.0594239 -0.940594E+02  0.294E-01    0.32       0.0  T
   2    -94.0586300  0.793912E-03  0.243E-01    0.22       1.0  T
   3    -94.0580780  0.551981E-03  0.215E-01    0.38       1.0  T
   4    -94.0590849 -0.100681E-02  0.133E-01    0.23       1.0  T
   5    -94.0602138 -0.112892E-02  0.250E-02    0.30       1.0  T
   6    -94.0602452 -0.314321E-04  0.136E-02    0.28       1.0  T
   7    -94.0602493 -0.412700E-05  0.693E-03    0.28       1.8  T
   8    -94.0602511 -0.171297E-05  0.333E-03    0.28       3.8  T
   9    -94.0602512 -0.102815E-06  0.163E-03    0.28       7.7  T
  10    -94.0602512 -0.212410E-09  0.841E-04    0.28      15.0  T
  11    -94.0602512 -0.114753E-07  0.661E-04    0.28      19.1  T
     SCC iter.                  ...        0 min,  0.051 sec
     gradient                   ...        0 min,  0.011 sec
 * total energy  :   -92.8819800 Eh     change       -0.1578853E-01 Eh
   gradient norm :     0.0421518 Eh/α   predicted    -0.1577796E-01 (  -0.07%)
   displ. norm   :     0.6699901 α      lambda       -0.1280822E-01
   maximum displ.:     0.4474306 α      in ANC's #9, #7, #3, ...

........................................................................
.............................. CYCLE    9 ..............................
........................................................................
   1    -94.0784354 -0.940784E+02  0.224E-01    0.32       0.0  T
   2    -94.0783093  0.126108E-03  0.136E-01    0.38       1.0  T
   3    -94.0774639  0.845367E-03  0.141E-01    0.28       1.0  T
   4    -94.0782207 -0.756836E-03  0.996E-02    0.38       1.0  T
   5    -94.0786184 -0.397696E-03  0.102E-02    0.34       1.2  T
   6    -94.0786163  0.215403E-05  0.902E-03    0.34       1.4  T
   7    -94.0786186 -0.230290E-05  0.440E-03    0.34       2.9  T
   8    -94.0786189 -0.289843E-06  0.236E-03    0.34       5.3  T
   9    -94.0786190 -0.998592E-07  0.961E-04    0.34      13.1  T
  10    -94.0786190  0.684710E-08  0.728E-04    0.34      17.3  T
     SCC iter.                  ...        0 min,  0.058 sec
     gradient                   ...        0 min,  0.011 sec
 * total energy  :   -92.8918488 Eh     change       -0.9868778E-02 Eh
   gradient norm :     0.0256833 Eh/α   predicted    -0.9278846E-02 (  -5.98%)
   displ. norm   :     0.7103992 α      lambda       -0.8089574E-02
   maximum displ.:     0.4972886 α      in ANC's #9, #7, #1, ...

........................................................................
.............................. CYCLE   10 ..............................
........................................................................
   1    -94.0841998 -0.940842E+02  0.168E-01    0.37       0.0  T
   2    -94.0841518  0.479830E-04  0.109E-01    0.42       1.0  T
   3    -94.0837428  0.408996E-03  0.107E-01    0.34       1.0  T
   4    -94.0841294 -0.386591E-03  0.753E-02    0.42       1.0  T
   5    -94.0843511 -0.221737E-03  0.901E-03    0.39       1.4  T
   6    -94.0843518 -0.644429E-06  0.640E-03    0.39       2.0  T
   7    -94.0843519 -0.939073E-07  0.488E-03    0.39       2.6  T
   8    -94.0843524 -0.482830E-06  0.177E-03    0.39       7.1  T
   9    -94.0843524 -0.179271E-07  0.832E-04    0.39      15.1  T
  10    -94.0843524 -0.478089E-08  0.540E-04    0.39      23.3  T
     SCC iter.                  ...        0 min,  0.047 sec
     gradient                   ...        0 min,  0.011 sec
 * total energy  :   -92.8984025 Eh     change       -0.6553708E-02 Eh
   gradient norm :     0.0219409 Eh/α   predicted    -0.6086060E-02 (  -7.14%)
   displ. norm   :     0.7236572 α      lambda       -0.5925373E-02
   maximum displ.:     0.4968444 α      in ANC's #9, #1, #7, ...

........................................................................
.............................. CYCLE   11 ..............................
........................................................................
   1    -94.0872617 -0.940873E+02  0.145E-01    0.43       0.0  T
   2    -94.0872956 -0.339878E-04  0.876E-02    0.44       1.0  T
   3    -94.0872831  0.125755E-04  0.536E-02    0.45       1.0  T
   4    -94.0870131  0.269936E-03  0.664E-02    0.40       1.0  T
   5    -94.0873057 -0.292566E-03  0.112E-02    0.44       1.1  T
   6    -94.0873123 -0.659265E-05  0.391E-03    0.43       3.2  T
   7    -94.0873122  0.125928E-06  0.283E-03    0.43       4.5  T
   8    -94.0873124 -0.219735E-06  0.118E-03    0.43      10.7  T
   9    -94.0873124 -0.224114E-07  0.656E-04    0.43      19.2  T
  10    -94.0873124 -0.135119E-07  0.287E-04    0.43      43.9  T
     SCC iter.                  ...        0 min,  0.045 sec
     gradient                   ...        0 min,  0.011 sec
 * total energy  :   -92.9033438 Eh     change       -0.4941330E-02 Eh
   gradient norm :     0.0214689 Eh/α   predicted    -0.4514189E-02 (  -8.64%)
   displ. norm   :     0.7232684 α      lambda       -0.4761808E-02
   maximum displ.:     0.4736257 α      in ANC's #9, #1, #7, ...

........................................................................
.............................. CYCLE   12 ..............................
........................................................................
   1    -94.0894918 -0.940895E+02  0.147E-01    0.48       0.0  T
   2    -94.0895135 -0.217143E-04  0.875E-02    0.47       1.0  T
   3    -94.0894889  0.246659E-04  0.564E-02    0.49       1.0  T
   4    -94.0892556  0.233238E-03  0.629E-02    0.44       1.0  T
   5    -94.0895226 -0.266976E-03  0.115E-02    0.48       1.1  T
   6    -94.0895292 -0.658481E-05  0.351E-03    0.47       3.6  T
   7    -94.0895291  0.101221E-06  0.298E-03    0.47       4.2  T
   8    -94.0895292 -0.121765E-06  0.158E-03    0.47       8.0  T
   9    -94.0895293 -0.721678E-07  0.738E-04    0.47      17.1  T
  10    -94.0895293 -0.144605E-07  0.286E-04    0.47      44.0  T
     SCC iter.                  ...        0 min,  0.050 sec
     gradient                   ...        0 min,  0.011 sec
 * total energy  :   -92.9072184 Eh     change       -0.3874599E-02 Eh
   gradient norm :     0.0189685 Eh/α   predicted    -0.3626405E-02 (  -6.41%)
   displ. norm   :     0.6974330 α      lambda       -0.3701002E-02
   maximum displ.:     0.4645797 α      in ANC's #9, #1, #7, ...

........................................................................
.............................. CYCLE   13 ..............................
........................................................................
   1    -94.0893136 -0.940893E+02  0.150E-01    0.54       0.0  T
   2    -94.0892989  0.147025E-04  0.104E-01    0.52       1.0  T
   3    -94.0891638  0.135063E-03  0.813E-02    0.57       1.0  T
   4    -94.0890336  0.130212E-03  0.745E-02    0.49       1.0  T
   5    -94.0893947 -0.361153E-03  0.141E-02    0.54       1.0  T
   6    -94.0894049 -0.101265E-04  0.442E-03    0.53       2.9  T
   7    -94.0894049 -0.734936E-07  0.272E-03    0.53       4.6  T
   8    -94.0894051 -0.177230E-06  0.118E-03    0.53      10.7  T
   9    -94.0894051 -0.157476E-07  0.558E-04    0.53      22.6  T
  10    -94.0894051  0.438517E-08  0.466E-04    0.53      27.1  T
     SCC iter.                  ...        0 min,  0.047 sec
     gradient                   ...        0 min,  0.011 sec
 * total energy  :   -92.9099575 Eh     change       -0.2739072E-02 Eh
   gradient norm :     0.0168917 Eh/α   predicted    -0.2750611E-02 (   0.42%)
   displ. norm   :     0.6434588 α      lambda       -0.2730304E-02
   maximum displ.:     0.4004897 α      in ANC's #9, #1, #10, ...

........................................................................
.............................. CYCLE   14 ..............................
........................................................................
   1    -94.0913534 -0.940914E+02  0.143E-01    0.59       0.0  T
   2    -94.0914448 -0.914253E-04  0.883E-02    0.58       1.0  T
   3    -94.0914616 -0.168355E-04  0.546E-02    0.59       1.0  T
   4    -94.0913020  0.159654E-03  0.551E-02    0.55       1.0  T
   5    -94.0914923 -0.190326E-03  0.118E-02    0.59       1.1  T
   6    -94.0914991 -0.682358E-05  0.433E-03    0.58       2.9  T
   7    -94.0914993 -0.151494E-06  0.264E-03    0.58       4.8  T
   8    -94.0914993 -0.235912E-08  0.149E-03    0.58       8.4  T
   9    -94.0914993 -0.369007E-07  0.655E-04    0.58      19.2  T
  10    -94.0914993 -0.285057E-08  0.445E-04    0.58      28.3  T
     SCC iter.                  ...        0 min,  0.045 sec
     gradient                   ...        0 min,  0.011 sec
 * total energy  :   -92.9116554 Eh     change       -0.1697863E-02 Eh
   gradient norm :     0.0167961 Eh/α   predicted    -0.1930381E-02 (  13.69%)
   displ. norm   :     0.5258632 α      lambda       -0.1742240E-02
   maximum displ.:     0.3019836 α      in ANC's #9, #1, #10, ...

........................................................................
.............................. CYCLE   15 ..............................
........................................................................
   1    -94.0935478 -0.940935E+02  0.113E-01    0.62       0.0  T
   2    -94.0936004 -0.525262E-04  0.679E-02    0.63       1.0  T
   3    -94.0935849  0.154885E-04  0.461E-02    0.60       1.0  T
   4    -94.0934229  0.162007E-03  0.606E-02    0.65       1.0  T
   5    -94.0936419 -0.219016E-03  0.550E-03    0.62       2.3  T
   6    -94.0936421 -0.194113E-06  0.333E-03    0.62       3.8  T
   7    -94.0936421 -0.398345E-07  0.236E-03    0.62       5.3  T
   8    -94.0936422 -0.642026E-07  0.120E-03    0.62      10.5  T
   9    -94.0936422 -0.515924E-08  0.556E-04    0.62      22.6  T
  10    -94.0936422 -0.114059E-08  0.388E-04    0.62      32.5  T
     SCC iter.                  ...        0 min,  0.044 sec
     gradient                   ...        0 min,  0.011 sec
 * total energy  :   -92.9127208 Eh     change       -0.1065419E-02 Eh
   gradient norm :     0.0123701 Eh/α   predicted    -0.1112016E-02 (   4.37%)
   displ. norm   :     0.4474291 α      lambda       -0.1163531E-02
   maximum displ.:     0.2582713 α      in ANC's #1, #9, #10, ...

........................................................................
.............................. CYCLE   16 ..............................
........................................................................
   1    -94.0948333 -0.940948E+02  0.818E-02    0.65       0.0  T
   2    -94.0948534 -0.201620E-04  0.530E-02    0.66       1.0  T
   3    -94.0948523  0.111091E-05  0.291E-02    0.66       1.0  T
   4    -94.0948188  0.335546E-04  0.301E-02    0.64       1.0  T
   5    -94.0948592 -0.404542E-04  0.922E-03    0.66       1.4  T
   6    -94.0948639 -0.469729E-05  0.279E-03    0.66       4.5  T
   7    -94.0948641 -0.205006E-06  0.144E-03    0.66       8.7  T
   8    -94.0948641 -0.357953E-08  0.949E-04    0.66      13.3  T
   9    -94.0948641 -0.519739E-08  0.313E-04    0.66      40.3  T
     SCC iter.                  ...        0 min,  0.048 sec
     gradient                   ...        0 min,  0.011 sec
 * total energy  :   -92.9135805 Eh     change       -0.8596502E-03 Eh
   gradient norm :     0.0113119 Eh/α   predicted    -0.6982378E-03 ( -18.78%)
   displ. norm   :     0.4722130 α      lambda       -0.1014765E-02
   maximum displ.:     0.2831219 α      in ANC's #1, #9, #10, ...

........................................................................
.............................. CYCLE   17 ..............................
........................................................................
   1    -94.0981750 -0.940982E+02  0.763E-02    0.68       0.0  T
   2    -94.0981846 -0.952444E-05  0.430E-02    0.69       1.0  T
   3    -94.0981845  0.497166E-07  0.230E-02    0.68       1.0  T
   4    -94.0981847 -0.178906E-06  0.828E-03    0.69       1.5  T
   5    -94.0981835  0.114195E-05  0.902E-03    0.68       1.4  T
   6    -94.0981875 -0.393496E-05  0.186E-03    0.68       6.8  T
   7    -94.0981875  0.131215E-07  0.143E-03    0.68       8.8  T
   8    -94.0981875 -0.230268E-07  0.816E-04    0.68      15.4  T
   9    -94.0981875 -0.255800E-08  0.364E-04    0.68      34.6  T
     SCC iter.                  ...        0 min,  0.041 sec
     gradient                   ...        0 min,  0.011 sec
 * total energy  :   -92.9143842 Eh     change       -0.8037567E-03 Eh
   gradient norm :     0.0114594 Eh/α   predicted    -0.6205232E-03 ( -22.80%)
   displ. norm   :     0.5053777 α      lambda       -0.9290130E-03
   maximum displ.:     0.2889331 α      in ANC's #1, #16, #10, ...

........................................................................
.............................. CYCLE   18 ..............................
........................................................................
   1    -94.1008435 -0.941008E+02  0.841E-02    0.69       0.0  T
   2    -94.1008479 -0.435291E-05  0.457E-02    0.70       1.0  T
   3    -94.1008325  0.153648E-04  0.260E-02    0.69       1.0  T
   4    -94.1007990  0.335071E-04  0.295E-02    0.71       1.0  T
   5    -94.1008501 -0.510382E-04  0.607E-03    0.70       2.1  T
   6    -94.1008502 -0.174060E-06  0.244E-03    0.69       5.2  T
   7    -94.1008504 -0.111479E-06  0.141E-03    0.70       8.9  T
   8    -94.1008504 -0.184840E-07  0.804E-04    0.70      15.7  T
   9    -94.1008504  0.151638E-08  0.440E-04    0.70      28.7  T
     SCC iter.                  ...        0 min,  0.041 sec
     gradient                   ...        0 min,  0.011 sec
 * total energy  :   -92.9150721 Eh     change       -0.6878955E-03 Eh
   gradient norm :     0.0122259 Eh/α   predicted    -0.5831461E-03 ( -15.23%)
   displ. norm   :     0.4426052 α      lambda       -0.6022140E-03
   maximum displ.:     0.2625074 α      in ANC's #1, #10, #16, ...

........................................................................
.............................. CYCLE   19 ..............................
........................................................................
   1    -94.1001005 -0.941001E+02  0.673E-02    0.70       0.0  T
   2    -94.1001035 -0.303280E-05  0.387E-02    0.70       1.0  T
   3    -94.1000997  0.379917E-05  0.197E-02    0.71       1.0  T
   4    -94.1000934  0.636842E-05  0.166E-02    0.70       1.0  T
   5    -94.1001036 -0.102379E-04  0.412E-03    0.71       3.1  T
   6    -94.1001045 -0.845140E-06  0.189E-03    0.70       6.7  T
   7    -94.1001046 -0.105051E-06  0.713E-04    0.70      17.7  T
   8    -94.1001046 -0.602461E-08  0.434E-04    0.70      29.1  T
     SCC iter.                  ...        0 min,  0.036 sec
     gradient                   ...        0 min,  0.011 sec
 * total energy  :   -92.9154864 Eh     change       -0.4143444E-03 Eh
   gradient norm :     0.0123466 Eh/α   predicted    -0.3600973E-03 ( -13.09%)
   displ. norm   :     0.3690455 α      lambda       -0.5171635E-03
   maximum displ.:     0.2113524 α      in ANC's #1, #10, #16, ...

........................................................................
.............................. CYCLE   20 ..............................
........................................................................
   1    -94.1053139 -0.941053E+02  0.599E-02    0.70       0.0  T
   2    -94.1053188 -0.491315E-05  0.352E-02    0.71       1.0  T
   3    -94.1053009  0.178595E-04  0.216E-02    0.69       1.0  T
   4    -94.1052875  0.134825E-04  0.251E-02    0.72       1.0  T
   5    -94.1053213 -0.338134E-04  0.309E-03    0.70       4.1  T
   6    -94.1053213 -0.390975E-07  0.141E-03    0.70       9.0  T
   7    -94.1053213 -0.101736E-07  0.895E-04    0.70      14.1  T
   8    -94.1053213 -0.119664E-07  0.342E-04    0.70      36.8  T
     SCC iter.                  ...        0 min,  0.043 sec
     gradient                   ...        0 min,  0.011 sec
 * total energy  :   -92.9157873 Eh     change       -0.3008178E-03 Eh
   gradient norm :     0.0107623 Eh/α   predicted    -0.2938013E-03 (  -2.33%)
   displ. norm   :     0.3450087 α      lambda       -0.4671604E-03
   maximum displ.:     0.2189979 α      in ANC's #1, #10, #16, ...
 * RMSD in coord.:     1.0065562 α      energy gain  -0.7755763E+00 Eh

generating ANC from model Hessian ...
Using Lindh-Hessian (1995)
 Shifting diagonal of input Hessian by   9.863017373698728E-003
 Lowest  eigenvalues of input Hessian
    0.000000    0.000000    0.000000    0.000000    0.000000    0.000000
    0.010000    0.010045    0.010238    0.010273    0.010313    0.010462
    0.010699    0.010920    0.011136    0.011743    0.012773    0.013238
 Highest eigenvalues
    1.908341    1.908386    2.088229    2.088932    2.093903    2.094409
 

........................................................................
.............................. CYCLE   21 ..............................
........................................................................
   1    -94.1031648 -0.941032E+02  0.469E-02    0.70       0.0  T
   2    -94.1031642  0.642237E-06  0.279E-02    0.71       1.0  T
   3    -94.1031083  0.559190E-04  0.353E-02    0.69       1.0  T
   4    -94.1031671 -0.588019E-04  0.998E-03    0.71       1.3  T
   5    -94.1031700 -0.295163E-05  0.180E-03    0.71       7.0  T
   6    -94.1031701 -0.441002E-07  0.111E-03    0.71      11.3  T
   7    -94.1031701 -0.710644E-08  0.465E-04    0.71      27.1  T
   8    -94.1031701  0.368205E-08  0.346E-04    0.71      36.4  T
     SCC iter.                  ...        0 min,  0.037 sec
     gradient                   ...        0 min,  0.011 sec
 * total energy  :   -92.9161229 Eh     change       -0.3356016E-03 Eh
   gradient norm :     0.0097375 Eh/α   predicted     0.0000000E+00 (-100.00%)
   displ. norm   :     0.1058019 α      lambda       -0.3138072E-03
   maximum displ.:     0.0462176 α      in ANC's #2, #12, #20, ...

........................................................................
.............................. CYCLE   22 ..............................
........................................................................
   1    -94.1042068 -0.941042E+02  0.391E-02    0.70       0.0  T
   2    -94.1042038  0.295832E-05  0.232E-02    0.69       1.0  T
   3    -94.1041434  0.603993E-04  0.337E-02    0.72       1.0  T
   4    -94.1042111 -0.676191E-04  0.691E-03    0.70       1.8  T
   5    -94.1042113 -0.203495E-06  0.350E-03    0.70       3.6  T
   6    -94.1042113 -0.113184E-07  0.148E-03    0.70       8.5  T
   7    -94.1042113 -0.628153E-07  0.681E-04    0.70      18.5  T
   8    -94.1042113 -0.404208E-08  0.447E-04    0.70      28.2  T
     SCC iter.                  ...        0 min,  0.036 sec
     gradient                   ...        0 min,  0.010 sec
 * total energy  :   -92.9163600 Eh     change       -0.2371031E-03 Eh
   gradient norm :     0.0052690 Eh/α   predicted    -0.1587050E-03 ( -33.07%)
   displ. norm   :     0.2122382 α      lambda       -0.3329683E-03
   maximum displ.:     0.1037668 α      in ANC's #2, #12, #7, ...

........................................................................
.............................. CYCLE   23 ..............................
........................................................................
   1    -94.1043571 -0.941044E+02  0.452E-02    0.69       0.0  T
   2    -94.1043424  0.146592E-04  0.341E-02    0.71       1.0  T
   3    -94.1042964  0.460132E-04  0.374E-02    0.68       1.0  T
   4    -94.1043632 -0.667606E-04  0.842E-03    0.70       1.5  T
   5    -94.1043648 -0.163134E-05  0.247E-03    0.70       5.1  T
   6    -94.1043648 -0.436664E-07  0.153E-03    0.69       8.2  T
   7    -94.1043648 -0.652038E-08  0.801E-04    0.69      15.7  T
   8    -94.1043648 -0.879334E-08  0.429E-04    0.70      29.4  T
     SCC iter.                  ...        0 min,  0.039 sec
     gradient                   ...        0 min,  0.011 sec
 * total energy  :   -92.9165721 Eh     change       -0.2121410E-03 Eh
   gradient norm :     0.0029743 Eh/α   predicted    -0.1739928E-03 ( -17.98%)
   displ. norm   :     0.1743871 α      lambda       -0.1319583E-03
   maximum displ.:     0.1015263 α      in ANC's #2, #12, #8, ...

........................................................................
.............................. CYCLE   24 ..............................
........................................................................
   1    -94.1041079 -0.941041E+02  0.276E-02    0.69       0.0  T
   2    -94.1041074  0.495530E-06  0.166E-02    0.70       1.0  T
   3    -94.1040832  0.241512E-04  0.216E-02    0.68       1.0  T
   4    -94.1041084 -0.252258E-04  0.482E-03    0.70       2.6  T
   5    -94.1041090 -0.612120E-06  0.110E-03    0.69      11.4  T
   6    -94.1041091 -0.127686E-07  0.657E-04    0.69      19.2  T
   7    -94.1041091 -0.108730E-08  0.435E-04    0.69      29.0  T
     SCC iter.                  ...        0 min,  0.035 sec
     gradient                   ...        0 min,  0.010 sec
 * total energy  :   -92.9166786 Eh     change       -0.1065266E-03 Eh
   gradient norm :     0.0039946 Eh/α   predicted    -0.6801262E-04 ( -36.15%)
   displ. norm   :     0.2600713 α      lambda       -0.1778505E-03
   maximum displ.:     0.1537289 α      in ANC's #2, #8, #7, ...

........................................................................
.............................. CYCLE   25 ..............................
........................................................................
   1    -94.1036349 -0.941036E+02  0.383E-02    0.69       0.0  T
   2    -94.1036358 -0.961432E-06  0.225E-02    0.69       1.0  T
   3    -94.1036342  0.164053E-05  0.113E-02    0.69       1.1  T
   4    -94.1036312  0.298310E-05  0.908E-03    0.70       1.4  T
   5    -94.1036360 -0.475009E-05  0.314E-03    0.69       4.0  T
   6    -94.1036362 -0.280729E-06  0.131E-03    0.69       9.6  T
   7    -94.1036362  0.925047E-08  0.104E-03    0.69      12.1  T
   8    -94.1036363 -0.159986E-07  0.460E-04    0.69      27.4  T
   9    -94.1036363 -0.431498E-09  0.200E-04    0.69      63.0  T
     SCC iter.                  ...        0 min,  0.041 sec
     gradient                   ...        0 min,  0.011 sec
 * total energy  :   -92.9168237 Eh     change       -0.1450919E-03 Eh
   gradient norm :     0.0043558 Eh/α   predicted    -0.9494270E-04 ( -34.56%)
   displ. norm   :     0.3036598 α      lambda       -0.1847988E-03
   maximum displ.:     0.1890825 α      in ANC's #2, #8, #7, ...

........................................................................
.............................. CYCLE   26 ..............................
........................................................................
   1    -94.1035923 -0.941036E+02  0.478E-02    0.69       0.0  T
   2    -94.1035943 -0.196066E-05  0.272E-02    0.69       1.0  T
   3    -94.1035937  0.595596E-06  0.160E-02    0.69       1.0  T
   4    -94.1035899  0.378848E-05  0.106E-02    0.69       1.2  T
   5    -94.1035932 -0.328258E-05  0.511E-03    0.69       2.5  T
   6    -94.1035949 -0.169169E-05  0.172E-03    0.69       7.3  T
   7    -94.1035949 -0.124373E-07  0.126E-03    0.69      10.0  T
   8    -94.1035949 -0.107404E-07  0.750E-04    0.69      16.8  T
   9    -94.1035949 -0.645332E-08  0.246E-04    0.69      51.2  T
     SCC iter.                  ...        0 min,  0.041 sec
     gradient                   ...        0 min,  0.011 sec
 * total energy  :   -92.9169721 Eh     change       -0.1483760E-03 Eh
   gradient norm :     0.0041862 Eh/α   predicted    -0.1009205E-03 ( -31.98%)
   displ. norm   :     0.2863954 α      lambda       -0.1540642E-03
   maximum displ.:     0.1868480 α      in ANC's #2, #8, #3, ...

........................................................................
.............................. CYCLE   27 ..............................
........................................................................
   1    -94.1039577 -0.941040E+02  0.442E-02    0.69       0.0  T
   2    -94.1039444  0.133943E-04  0.315E-02    0.68       1.0  T
   3    -94.1039141  0.302189E-04  0.317E-02    0.70       1.0  T
   4    -94.1039573 -0.431507E-04  0.122E-02    0.68       1.0  T
   5    -94.1039631 -0.584925E-05  0.357E-03    0.69       3.5  T
   6    -94.1039636 -0.442516E-06  0.150E-03    0.69       8.4  T
   7    -94.1039636  0.653635E-08  0.111E-03    0.69      11.4  T
   8    -94.1039636 -0.124416E-07  0.641E-04    0.69      19.7  T
   9    -94.1039636 -0.287932E-08  0.270E-04    0.69      46.7  T
     SCC iter.                  ...        0 min,  0.044 sec
     gradient                   ...        0 min,  0.011 sec
 * total energy  :   -92.9170974 Eh     change       -0.1253407E-03 Eh
   gradient norm :     0.0031977 Eh/α   predicted    -0.8336203E-04 ( -33.49%)
   displ. norm   :     0.2648278 α      lambda       -0.1314773E-03
   maximum displ.:     0.1803570 α      in ANC's #2, #3, #8, ...

........................................................................
.............................. CYCLE   28 ..............................
........................................................................
   1    -94.1054387 -0.941054E+02  0.423E-02    0.69       0.0  T
   2    -94.1054406 -0.191628E-05  0.223E-02    0.69       1.0  T
   3    -94.1054406  0.731608E-07  0.132E-02    0.69       1.0  T
   4    -94.1054367  0.382243E-05  0.984E-03    0.68       1.3  T
   5    -94.1054396 -0.286561E-05  0.492E-03    0.69       2.6  T
   6    -94.1054411 -0.154554E-05  0.156E-03    0.69       8.1  T
   7    -94.1054412 -0.833573E-08  0.114E-03    0.69      11.0  T
   8    -94.1054412 -0.319392E-08  0.720E-04    0.69      17.5  T
   9    -94.1054412 -0.670524E-08  0.244E-04    0.69      51.7  T
     SCC iter.                  ...        0 min,  0.045 sec
     gradient                   ...        0 min,  0.011 sec
 * total energy  :   -92.9172030 Eh     change       -0.1055239E-03 Eh
   gradient norm :     0.0024457 Eh/α   predicted    -0.7034968E-04 ( -33.33%)
   displ. norm   :     0.2383735 α      lambda       -0.1070312E-03
   maximum displ.:     0.1648973 α      in ANC's #2, #3, #8, ...

........................................................................
.............................. CYCLE   29 ..............................
........................................................................
   1    -94.1059838 -0.941060E+02  0.346E-02    0.69       0.0  T
   2    -94.1059593  0.244878E-04  0.301E-02    0.67       1.0  T
   3    -94.1059677 -0.840632E-05  0.232E-02    0.70       1.0  T
   4    -94.1059905 -0.227737E-04  0.961E-03    0.68       1.3  T
   5    -94.1059916 -0.116429E-05  0.359E-03    0.69       3.5  T
   6    -94.1059921 -0.455402E-06  0.173E-03    0.68       7.3  T
   7    -94.1059921 -0.220548E-07  0.115E-03    0.68      11.0  T
   8    -94.1059921 -0.933696E-09  0.637E-04    0.68      19.8  T
   9    -94.1059921 -0.627222E-08  0.242E-04    0.68      52.1  T
     SCC iter.                  ...        0 min,  0.041 sec
     gradient                   ...        0 min,  0.011 sec
 * total energy  :   -92.9172896 Eh     change       -0.8666643E-04 Eh
   gradient norm :     0.0025252 Eh/α   predicted    -0.5655940E-04 ( -34.74%)
   displ. norm   :     0.2127609 α      lambda       -0.8796318E-04
   maximum displ.:     0.1501074 α      in ANC's #2, #3, #8, ...

........................................................................
.............................. CYCLE   30 ..............................
........................................................................
   1    -94.1066811 -0.941067E+02  0.320E-02    0.69       0.0  T
   2    -94.1066822 -0.108772E-05  0.188E-02    0.69       1.0  T
   3    -94.1066826 -0.391687E-06  0.108E-02    0.69       1.2  T
   4    -94.1066826 -0.520605E-07  0.495E-03    0.69       2.5  T
   5    -94.1066827 -0.697625E-07  0.239E-03    0.69       5.3  T
   6    -94.1066826  0.581651E-07  0.202E-03    0.69       6.2  T
   7    -94.1066826  0.256703E-07  0.181E-03    0.69       7.0  T
   8    -94.1066828 -0.133660E-06  0.432E-04    0.69      29.2  T
   9    -94.1066828 -0.118733E-08  0.197E-04    0.69      64.1  T
     SCC iter.                  ...        0 min,  0.041 sec
     gradient                   ...        0 min,  0.010 sec
 * total energy  :   -92.9173671 Eh     change       -0.7743759E-04 Eh
   gradient norm :     0.0026801 Eh/α   predicted    -0.4597596E-04 ( -40.63%)
   displ. norm   :     0.2153792 α      lambda       -0.9070058E-04
   maximum displ.:     0.1517890 α      in ANC's #2, #3, #5, ...

........................................................................
.............................. CYCLE   31 ..............................
........................................................................
   1    -94.1069339 -0.941069E+02  0.416E-02    0.69       0.0  T
   2    -94.1069366 -0.263732E-05  0.257E-02    0.69       1.0  T
   3    -94.1069376 -0.104799E-05  0.137E-02    0.69       1.0  T
   4    -94.1069357  0.188045E-05  0.905E-03    0.69       1.4  T
   5    -94.1069374 -0.162907E-05  0.480E-03    0.69       2.6  T
   6    -94.1069378 -0.463649E-06  0.365E-03    0.69       3.5  T
   7    -94.1069381 -0.246653E-06  0.172E-03    0.69       7.3  T
   8    -94.1069381 -0.276837E-07  0.508E-04    0.69      24.8  T
   9    -94.1069381 -0.559176E-08  0.285E-04    0.69      44.2  T
     SCC iter.                  ...        0 min,  0.044 sec
     gradient                   ...        0 min,  0.011 sec
 * total energy  :   -92.9174497 Eh     change       -0.8259321E-04 Eh
   gradient norm :     0.0025852 Eh/α   predicted    -0.4745895E-04 ( -42.54%)
   displ. norm   :     0.2862828 α      lambda       -0.1224975E-03
   maximum displ.:     0.1993474 α      in ANC's #2, #3, #5, ...

........................................................................
.............................. CYCLE   32 ..............................
........................................................................
   1    -94.1068555 -0.941069E+02  0.754E-02    0.70       0.0  T
   2    -94.1068632 -0.772398E-05  0.482E-02    0.70       1.0  T
   3    -94.1068669 -0.370636E-05  0.252E-02    0.69       1.0  T
   4    -94.1068361  0.308136E-04  0.283E-02    0.71       1.0  T
   5    -94.1068694 -0.333141E-04  0.104E-02    0.69       1.2  T
   6    -94.1068720 -0.261258E-05  0.649E-03    0.70       1.9  T
   7    -94.1068724 -0.324550E-06  0.333E-03    0.70       3.8  T
   8    -94.1068724 -0.665156E-07  0.100E-03    0.70      12.5  T
   9    -94.1068725 -0.161654E-07  0.552E-04    0.70      22.8  T
  10    -94.1068725 -0.922398E-09  0.397E-04    0.70      31.8  T
     SCC iter.                  ...        0 min,  0.052 sec
     gradient                   ...        0 min,  0.011 sec
 * total energy  :   -92.9175627 Eh     change       -0.1130818E-03 Eh
   gradient norm :     0.0025713 Eh/α   predicted    -0.6626959E-04 ( -41.40%)
   displ. norm   :     0.4572969 α      lambda       -0.1968749E-03
   maximum displ.:     0.3141196 α      in ANC's #2, #3, #5, ...

........................................................................
.............................. CYCLE   33 ..............................
........................................................................
   1    -94.1058741 -0.941059E+02  0.154E-01    0.71       0.0  T
   2    -94.1059027 -0.285701E-04  0.101E-01    0.72       1.0  T
   3    -94.1059211 -0.184925E-04  0.529E-02    0.70       1.0  T
   4    -94.1058224  0.987430E-04  0.565E-02    0.74       1.0  T
   5    -94.1059397 -0.117345E-03  0.222E-02    0.70       1.0  T
   6    -94.1059522 -0.124335E-04  0.135E-02    0.71       1.0  T
   7    -94.1059539 -0.168941E-05  0.718E-03    0.71       1.8  T
   8    -94.1059542 -0.286596E-06  0.229E-03    0.71       5.5  T
   9    -94.1059542 -0.530333E-07  0.116E-03    0.71      10.9  T
  10    -94.1059542 -0.480848E-08  0.844E-04    0.71      14.9  T
  11    -94.1059542 -0.958133E-08  0.324E-04    0.71      38.9  T
     SCC iter.                  ...        0 min,  0.061 sec
     gradient                   ...        0 min,  0.011 sec
 * total energy  :   -92.9177512 Eh     change       -0.1884767E-03 Eh
   gradient norm :     0.0036531 Eh/α   predicted    -0.1190246E-03 ( -36.85%)
   displ. norm   :     0.8403416 α      lambda       -0.3894809E-03
   maximum displ.:     0.5761406 α      in ANC's #2, #3, #5, ...

........................................................................
.............................. CYCLE   34 ..............................
........................................................................
   1    -94.1010921 -0.941011E+02  0.347E-01    0.73       0.0  T
   2    -94.1011558 -0.637057E-04  0.253E-01    0.76       1.0  T
   3    -94.1013199 -0.164099E-03  0.123E-01    0.71       1.0  T
   4    -94.1011343  0.185559E-03  0.110E-01    0.78       1.0  T
   5    -94.1013918 -0.257430E-03  0.594E-02    0.71       1.0  T
   6    -94.1015214 -0.129690E-03  0.303E-02    0.74       1.0  T
   7    -94.1015330 -0.115741E-04  0.170E-02    0.73       1.0  T
   8    -94.1015339 -0.830793E-06  0.707E-03    0.73       1.8  T
   9    -94.1015349 -0.100757E-05  0.298E-03    0.73       4.2  T
  10    -94.1015350 -0.922501E-07  0.185E-03    0.73       6.8  T
  11    -94.1015350 -0.169495E-07  0.864E-04    0.73      14.6  T
  12    -94.1015350 -0.870531E-08  0.455E-04    0.73      27.7  T
     SCC iter.                  ...        0 min,  0.063 sec
     gradient                   ...        0 min,  0.011 sec
 * total energy  :   -92.9180963 Eh     change       -0.3450453E-03 Eh
   gradient norm :     0.0084218 Eh/α   predicted    -0.3322692E-03 (  -3.70%)
   displ. norm   :     0.6858026 α      lambda       -0.3893542E-03
   maximum displ.:     0.4732004 α      in ANC's #2, #3, #5, ...

........................................................................
.............................. CYCLE   35 ..............................
........................................................................
   1    -94.0973384 -0.940973E+02  0.380E-01    0.76       0.0  T
   2    -94.0971382  0.200182E-03  0.329E-01    0.80       1.0  T
   3    -94.0975627 -0.424504E-03  0.131E-01    0.73       1.0  T
   4    -94.0975449  0.178068E-04  0.103E-01    0.80       1.0  T
   5    -94.0976469 -0.101944E-03  0.703E-02    0.73       1.0  T
   6    -94.0978508 -0.203933E-03  0.309E-02    0.77       1.0  T
   7    -94.0978625 -0.116782E-04  0.179E-02    0.76       1.0  T
   8    -94.0978626 -0.157394E-06  0.101E-02    0.76       1.3  T
   9    -94.0978641 -0.143240E-05  0.277E-03    0.76       4.6  T
  10    -94.0978641 -0.155403E-07  0.189E-03    0.76       6.7  T
  11    -94.0978641 -0.267759E-07  0.884E-04    0.76      14.3  T
  12    -94.0978641 -0.863248E-08  0.431E-04    0.76      29.2  T
     SCC iter.                  ...        0 min,  0.066 sec
     gradient                   ...        0 min,  0.010 sec
 * total energy  :   -92.9183932 Eh     change       -0.2969022E-03 Eh
   gradient norm :     0.0125141 Eh/α   predicted    -0.2862472E-03 (  -3.59%)
   displ. norm   :     0.3980126 α      lambda       -0.6283767E-03
   maximum displ.:     0.2589439 α      in ANC's #2, #28, #3, ...

........................................................................
.............................. CYCLE   36 ..............................
........................................................................
   1    -94.1016663 -0.941017E+02  0.315E-01    0.78       0.0  T
   2    -94.1010301  0.636213E-03  0.341E-01    0.85       1.0  T
   3    -94.1018491 -0.818974E-03  0.108E-01    0.77       1.0  T
   4    -94.1018611 -0.120114E-04  0.819E-02    0.83       1.0  T
   5    -94.1019589 -0.977804E-04  0.581E-02    0.77       1.0  T
   6    -94.1020897 -0.130826E-03  0.253E-02    0.80       1.0  T
   7    -94.1020933 -0.363667E-05  0.158E-02    0.80       1.0  T
   8    -94.1020940 -0.695751E-06  0.868E-03    0.80       1.5  T
   9    -94.1020948 -0.771234E-06  0.206E-03    0.80       6.1  T
  10    -94.1020948 -0.649170E-08  0.127E-03    0.80       9.9  T
  11    -94.1020948 -0.121520E-07  0.655E-04    0.80      19.2  T
  12    -94.1020948 -0.491382E-08  0.281E-04    0.80      44.8  T
     SCC iter.                  ...        0 min,  0.063 sec
     gradient                   ...        0 min,  0.011 sec
 * total energy  :   -92.9188432 Eh     change       -0.4500490E-03 Eh
   gradient norm :     0.0105035 Eh/α   predicted    -0.3639620E-03 ( -19.13%)
   displ. norm   :     0.4128486 α      lambda       -0.6375653E-03
   maximum displ.:     0.2612885 α      in ANC's #2, #3, #28, ...

........................................................................
.............................. CYCLE   37 ..............................
........................................................................
   1    -94.1032932 -0.941033E+02  0.281E-01    0.82       0.0  T
   2    -94.1030167  0.276471E-03  0.266E-01    0.86       1.0  T
   3    -94.1033578 -0.341138E-03  0.115E-01    0.80       1.0  T
   4    -94.1034304 -0.725361E-04  0.732E-02    0.85       1.0  T
   5    -94.1034078  0.225435E-04  0.574E-02    0.80       1.0  T
   6    -94.1035576 -0.149735E-03  0.249E-02    0.83       1.0  T
   7    -94.1035678 -0.102381E-04  0.160E-02    0.82       1.0  T
   8    -94.1035691 -0.130600E-05  0.736E-03    0.82       1.7  T
   9    -94.1035695 -0.424864E-06  0.204E-03    0.82       6.2  T
  10    -94.1035695 -0.951694E-08  0.123E-03    0.82      10.2  T
  11    -94.1035695 -0.427769E-08  0.640E-04    0.82      19.7  T
  12    -94.1035695 -0.571640E-08  0.279E-04    0.82      45.1  T
     SCC iter.                  ...        0 min,  0.064 sec
     gradient                   ...        0 min,  0.011 sec
 * total energy  :   -92.9193431 Eh     change       -0.4999193E-03 Eh
   gradient norm :     0.0091219 Eh/α   predicted    -0.3731213E-03 ( -25.36%)
   displ. norm   :     0.3847070 α      lambda       -0.7560187E-03
   maximum displ.:     0.1527819 α      in ANC's #2, #5, #12, ...

........................................................................
.............................. CYCLE   38 ..............................
........................................................................
   1    -94.1080561 -0.941081E+02  0.154E-01    0.84       0.0  T
   2    -94.1079815  0.746171E-04  0.125E-01    0.87       1.0  T
   3    -94.1080262 -0.447150E-04  0.874E-02    0.83       1.0  T
   4    -94.1080867 -0.604794E-04  0.465E-02    0.86       1.0  T
   5    -94.1081173 -0.305915E-04  0.259E-02    0.84       1.0  T
   6    -94.1081371 -0.198396E-04  0.151E-02    0.85       1.0  T
   7    -94.1081412 -0.408406E-05  0.104E-02    0.84       1.2  T
   8    -94.1081426 -0.141467E-05  0.340E-03    0.84       3.7  T
   9    -94.1081427 -0.665939E-07  0.145E-03    0.84       8.7  T
  10    -94.1081427 -0.879804E-08  0.860E-04    0.84      14.7  T
  11    -94.1081427 -0.140315E-08  0.443E-04    0.84      28.4  T
     SCC iter.                  ...        0 min,  0.063 sec
     gradient                   ...        0 min,  0.011 sec
 * total energy  :   -92.9197449 Eh     change       -0.4017125E-03 Eh
   gradient norm :     0.0108344 Eh/α   predicted    -0.4339592E-03 (   8.03%)
   displ. norm   :     0.5597951 α      lambda       -0.6946908E-03
   maximum displ.:     0.3317974 α      in ANC's #2, #5, #3, ...

........................................................................
.............................. CYCLE   39 ..............................
........................................................................
   1    -94.1017795 -0.941018E+02  0.406E-01    0.87       0.0  T
   2    -94.1018963 -0.116776E-03  0.309E-01    0.86       1.0  T
   3    -94.1020473 -0.151029E-03  0.129E-01    0.85       1.0  T
   4    -94.1020554 -0.807711E-05  0.796E-02    0.87       1.0  T
   5    -94.1018548  0.200623E-03  0.738E-02    0.82       1.0  T
   6    -94.1020970 -0.242283E-03  0.334E-02    0.87       1.0  T
   7    -94.1021244 -0.273977E-04  0.198E-02    0.86       1.0  T
   8    -94.1021281 -0.362681E-05  0.877E-03    0.85       1.4  T
   9    -94.1021285 -0.412640E-06  0.227E-03    0.85       5.6  T
  10    -94.1021285 -0.353984E-07  0.139E-03    0.85       9.0  T
  11    -94.1021285 -0.861890E-08  0.792E-04    0.85      15.9  T
  12    -94.1021285 -0.771853E-08  0.365E-04    0.85      34.6  T
     SCC iter.                  ...        0 min,  0.067 sec
     gradient                   ...        0 min,  0.011 sec
 * total energy  :   -92.9199824 Eh     change       -0.2375273E-03 Eh
   gradient norm :     0.0103370 Eh/α   predicted    -0.4561969E-03 (  92.06%)
   displ. norm   :     0.1191657 α      lambda       -0.3306564E-03
   maximum displ.:     0.0514259 α      in ANC's #10, #5, #19, ...

........................................................................
.............................. CYCLE   40 ..............................
........................................................................
   1    -94.1031216 -0.941031E+02  0.904E-02    0.85       0.0  T
   2    -94.1031267 -0.509380E-05  0.724E-02    0.86       1.0  T
   3    -94.1031389 -0.121436E-04  0.230E-02    0.85       1.0  T
   4    -94.1031383  0.536263E-06  0.137E-02    0.86       1.0  T
   5    -94.1031317  0.666587E-05  0.157E-02    0.85       1.0  T
   6    -94.1031405 -0.880083E-05  0.511E-03    0.86       2.5  T
   7    -94.1031403  0.158199E-06  0.470E-03    0.86       2.7  T
   8    -94.1031408 -0.499292E-06  0.195E-03    0.86       6.5  T
   9    -94.1031408 -0.211815E-07  0.537E-04    0.86      23.5  T
  10    -94.1031408 -0.302563E-09  0.360E-04    0.86      34.9  T
     SCC iter.                  ...        0 min,  0.055 sec
     gradient                   ...        0 min,  0.011 sec
 * total energy  :   -92.9202225 Eh     change       -0.2400924E-03 Eh
   gradient norm :     0.0059511 Eh/α   predicted    -0.1676784E-03 ( -30.16%)
   displ. norm   :     0.2499562 α      lambda       -0.3286860E-03
   maximum displ.:     0.1112446 α      in ANC's #5, #10, #9, ...

........................................................................
.............................. CYCLE   41 ..............................
........................................................................
   1    -94.1058391 -0.941058E+02  0.786E-02    0.85       0.0  T
   2    -94.1058098  0.292853E-04  0.721E-02    0.84       1.0  T
   3    -94.1058370 -0.272083E-04  0.384E-02    0.86       1.0  T
   4    -94.1058456 -0.859892E-05  0.227E-02    0.84       1.0  T
   5    -94.1058482 -0.259072E-05  0.142E-02    0.86       1.0  T
   6    -94.1058588 -0.105654E-04  0.438E-03    0.85       2.9  T
   7    -94.1058591 -0.283046E-06  0.258E-03    0.85       4.9  T
   8    -94.1058590  0.695570E-07  0.194E-03    0.85       6.5  T
   9    -94.1058591 -0.112259E-06  0.502E-04    0.85      25.1  T
  10    -94.1058591 -0.330859E-08  0.300E-04    0.85      42.0  T
     SCC iter.                  ...        0 min,  0.060 sec
     gradient                   ...        0 min,  0.011 sec
 * total energy  :   -92.9204319 Eh     change       -0.2094673E-03 Eh
   gradient norm :     0.0049824 Eh/α   predicted    -0.1746134E-03 ( -16.64%)
   displ. norm   :     0.2673305 α      lambda       -0.1580529E-03
   maximum displ.:     0.1526797 α      in ANC's #5, #2, #9, ...

........................................................................
.............................. CYCLE   42 ..............................
........................................................................
   1    -94.1048084 -0.941048E+02  0.558E-02    0.86       0.0  T
   2    -94.1048101 -0.173089E-05  0.327E-02    0.85       1.0  T
   3    -94.1048092  0.921371E-06  0.201E-02    0.86       1.0  T
   4    -94.1047938  0.154178E-04  0.198E-02    0.84       1.0  T
   5    -94.1048117 -0.179114E-04  0.115E-02    0.86       1.1  T
   6    -94.1048144 -0.266136E-05  0.222E-03    0.85       5.7  T
   7    -94.1048143  0.110523E-07  0.174E-03    0.85       7.3  T
   8    -94.1048144 -0.316425E-07  0.871E-04    0.85      14.5  T
   9    -94.1048144 -0.370672E-08  0.357E-04    0.85      35.3  T
     SCC iter.                  ...        0 min,  0.050 sec
     gradient                   ...        0 min,  0.011 sec
 * total energy  :   -92.9205509 Eh     change       -0.1189331E-03 Eh
   gradient norm :     0.0049215 Eh/α   predicted    -0.8467479E-04 ( -28.80%)
   displ. norm   :     0.2612695 α      lambda       -0.1723207E-03
   maximum displ.:     0.1561647 α      in ANC's #5, #9, #10, ...
 * RMSD in coord.:     0.7552837 α      energy gain  -0.4763609E-02 Eh

generating ANC from model Hessian ...
Using Lindh-Hessian (1995)
 Shifting diagonal of input Hessian by   9.898407933082406E-003
 Lowest  eigenvalues of input Hessian
    0.000000    0.000000    0.000000    0.000000    0.000000    0.000000
    0.010000    0.010096    0.010243    0.010303    0.010345    0.010585
    0.010657    0.010968    0.011161    0.011708    0.012868    0.013305
 Highest eigenvalues
    1.903349    1.910183    2.068157    2.088190    2.096294    2.107165
 

........................................................................
.............................. CYCLE   43 ..............................
........................................................................
   1    -94.1076401 -0.941076E+02  0.540E-02    0.85       0.0  T
   2    -94.1076226  0.175140E-04  0.417E-02    0.84       1.0  T
   3    -94.1076199  0.265083E-05  0.380E-02    0.86       1.0  T
   4    -94.1076495 -0.295978E-04  0.118E-02    0.85       1.1  T
   5    -94.1076479  0.164960E-05  0.678E-03    0.85       1.9  T
   6    -94.1076505 -0.260235E-05  0.196E-03    0.85       6.4  T
   7    -94.1076505 -0.300880E-07  0.131E-03    0.85       9.6  T
   8    -94.1076505 -0.143947E-07  0.743E-04    0.85      17.0  T
   9    -94.1076505 -0.350144E-08  0.293E-04    0.85      42.9  T
     SCC iter.                  ...        0 min,  0.041 sec
     gradient                   ...        0 min,  0.010 sec
 * total energy  :   -92.9206612 Eh     change       -0.1103559E-03 Eh
   gradient norm :     0.0033390 Eh/α   predicted     0.0000000E+00 (-100.00%)
   displ. norm   :     0.0549099 α      lambda       -0.1120663E-04
   maximum displ.:     0.0263993 α      in ANC's #1, #4, #3, ...

........................................................................
.............................. CYCLE   44 ..............................
........................................................................
   1    -94.1069505 -0.941070E+02  0.278E-02    0.85       0.0  T
   2    -94.1069459  0.469009E-05  0.180E-02    0.84       1.0  T
   3    -94.1069432  0.268195E-05  0.158E-02    0.85       1.0  T
   4    -94.1069530 -0.986039E-05  0.112E-02    0.84       1.1  T
   5    -94.1069543 -0.124645E-05  0.537E-03    0.84       2.3  T
   6    -94.1069548 -0.560498E-06  0.223E-03    0.85       5.6  T
   7    -94.1069549 -0.148464E-07  0.148E-03    0.85       8.5  T
   8    -94.1069549 -0.429020E-08  0.729E-04    0.85      17.3  T
   9    -94.1069549 -0.524741E-08  0.274E-04    0.85      46.0  T
     SCC iter.                  ...        0 min,  0.045 sec
     gradient                   ...        0 min,  0.011 sec
 * total energy  :   -92.9207095 Eh     change       -0.4831017E-04 Eh
   gradient norm :     0.0017443 Eh/α   predicted    -0.3135374E-04 ( -35.10%)
   displ. norm   :     0.2059461 α      lambda       -0.9457011E-04
   maximum displ.:     0.1036043 α      in ANC's #1, #4, #3, ...

........................................................................
.............................. CYCLE   45 ..............................
........................................................................
   1    -94.1064828 -0.941065E+02  0.693E-02    0.85       0.0  T
   2    -94.1064826  0.188697E-06  0.338E-02    0.86       1.0  T
   3    -94.1064572  0.254049E-04  0.320E-02    0.84       1.0  T
   4    -94.1064810 -0.238140E-04  0.262E-02    0.86       1.0  T
   5    -94.1064952 -0.142085E-04  0.896E-03    0.86       1.4  T
   6    -94.1064967 -0.147317E-05  0.499E-03    0.85       2.5  T
   7    -94.1064970 -0.267740E-06  0.309E-03    0.85       4.1  T
   8    -94.1064970 -0.509119E-07  0.147E-03    0.85       8.6  T
   9    -94.1064970 -0.190574E-07  0.531E-04    0.85      23.7  T
  10    -94.1064970 -0.226680E-08  0.273E-04    0.85      46.2  T
     SCC iter.                  ...        0 min,  0.048 sec
     gradient                   ...        0 min,  0.011 sec
 * total energy  :   -92.9207600 Eh     change       -0.5048851E-04 Eh
   gradient norm :     0.0042352 Eh/α   predicted    -0.4818002E-04 (  -4.57%)
   displ. norm   :     0.0545541 α      lambda       -0.4872814E-04
   maximum displ.:     0.0304736 α      in ANC's #1, #4, #3, ...

........................................................................
.............................. CYCLE   46 ..............................
........................................................................
   1    -94.1062293 -0.941062E+02  0.212E-02    0.85       0.0  T
   2    -94.1062230  0.631922E-05  0.142E-02    0.84       1.0  T
   3    -94.1062217  0.124908E-05  0.167E-02    0.86       1.0  T
   4    -94.1062322 -0.104852E-04  0.490E-03    0.85       2.6  T
   5    -94.1062320  0.180831E-06  0.293E-03    0.85       4.3  T
   6    -94.1062324 -0.314455E-06  0.127E-03    0.85       9.9  T
   7    -94.1062324 -0.927785E-08  0.937E-04    0.85      13.4  T
   8    -94.1062324 -0.680329E-08  0.473E-04    0.85      26.6  T
     SCC iter.                  ...        0 min,  0.037 sec
     gradient                   ...        0 min,  0.011 sec
 * total energy  :   -92.9207927 Eh     change       -0.3264328E-04 Eh
   gradient norm :     0.0029709 Eh/α   predicted    -0.2444638E-04 ( -25.11%)
   displ. norm   :     0.0852013 α      lambda       -0.5498571E-04
   maximum displ.:     0.0477103 α      in ANC's #1, #4, #3, ...

........................................................................
.............................. CYCLE   47 ..............................
........................................................................
   1    -94.1068424 -0.941068E+02  0.224E-02    0.85       0.0  T
   2    -94.1068431 -0.757847E-06  0.149E-02    0.85       1.0  T
   3    -94.1068436 -0.445404E-06  0.709E-03    0.85       1.8  T
   4    -94.1068432  0.381867E-06  0.423E-03    0.85       3.0  T
   5    -94.1068427  0.500637E-06  0.517E-03    0.85       2.4  T
   6    -94.1068438 -0.107500E-05  0.946E-04    0.85      13.3  T
   7    -94.1068438  0.608394E-08  0.806E-04    0.85      15.6  T
   8    -94.1068438 -0.112738E-07  0.430E-04    0.85      29.3  T
     SCC iter.                  ...        0 min,  0.040 sec
     gradient                   ...        0 min,  0.011 sec
 * total energy  :   -92.9208341 Eh     change       -0.4142180E-04 Eh
   gradient norm :     0.0015667 Eh/α   predicted    -0.2769824E-04 ( -33.13%)
   displ. norm   :     0.2245653 α      lambda       -0.5676108E-04
   maximum displ.:     0.1282560 α      in ANC's #1, #4, #3, ...

........................................................................
.............................. CYCLE   48 ..............................
........................................................................
   1    -94.1073821 -0.941074E+02  0.401E-02    0.85       0.0  T
   2    -94.1073801  0.195801E-05  0.264E-02    0.86       1.0  T
   3    -94.1073768  0.333019E-05  0.221E-02    0.84       1.0  T
   4    -94.1073818 -0.502404E-05  0.135E-02    0.85       1.0  T
   5    -94.1073857 -0.382809E-05  0.370E-03    0.85       3.4  T
   6    -94.1073861 -0.471330E-06  0.241E-03    0.85       5.2  T
   7    -94.1073863 -0.183015E-06  0.123E-03    0.85      10.3  T
   8    -94.1073863  0.472441E-08  0.798E-04    0.85      15.8  T
   9    -94.1073863 -0.133184E-07  0.244E-04    0.85      51.7  T
     SCC iter.                  ...        0 min,  0.044 sec
     gradient                   ...        0 min,  0.011 sec
 * total energy  :   -92.9208955 Eh     change       -0.6145336E-04 Eh
   gradient norm :     0.0032561 Eh/α   predicted    -0.2902287E-04 ( -52.77%)
   displ. norm   :     0.1821239 α      lambda       -0.5748946E-04
   maximum displ.:     0.1055681 α      in ANC's #1, #4, #3, ...

........................................................................
.............................. CYCLE   49 ..............................
........................................................................
   1    -94.1073495 -0.941073E+02  0.235E-02    0.85       0.0  T
   2    -94.1073496 -0.136523E-06  0.169E-02    0.85       1.0  T
   3    -94.1073498 -0.166917E-06  0.109E-02    0.85       1.2  T
   4    -94.1073492  0.526821E-06  0.491E-03    0.85       2.6  T
   5    -94.1073496 -0.395533E-06  0.250E-03    0.85       5.0  T
   6    -94.1073500 -0.375594E-06  0.744E-04    0.85      16.9  T
   7    -94.1073500 -0.133104E-07  0.372E-04    0.85      33.8  T
     SCC iter.                  ...        0 min,  0.033 sec
     gradient                   ...        0 min,  0.011 sec
 * total energy  :   -92.9209491 Eh     change       -0.5350344E-04 Eh
   gradient norm :     0.0033588 Eh/α   predicted    -0.2969857E-04 ( -44.49%)
   displ. norm   :     0.3527074 α      lambda       -0.1143390E-03
   maximum displ.:     0.2033432 α      in ANC's #1, #4, #3, ...

........................................................................
.............................. CYCLE   50 ..............................
........................................................................
[...]
 molecular gradient             ...        0 min,  0.011 sec ( 33.953%)
 printout                       ...        0 min,  0.001 sec (  1.914%)

         :::::::::::::::::::::::::::::::::::::::::::::::::::::
         ::                     SUMMARY                     ::
         :::::::::::::::::::::::::::::::::::::::::::::::::::::
         :: total energy             -92.922098292256 Eh    ::
         :: total w/o Gsasa/hb       -92.886745431917 Eh    ::
         :: gradient norm              0.000053765266 Eh/a0 ::
         :: HOMO-LUMO gap              0.824767304662 eV    ::
         ::.................................................::
         :: SCC energy               -94.108251357149 Eh    ::
         :: -> isotropic ES            0.077902882497 Eh    ::
         :: -> anisotropic ES          0.014517850107 Eh    ::
         :: -> anisotropic XC          0.018285912104 Eh    ::
         :: -> dispersion             -0.092138471874 Eh    ::
         :: -> Gsolv                  -0.038695686029 Eh    ::
         ::    -> Gelec               -0.003342825690 Eh    ::
         ::    -> Gsasa               -0.039501557700 Eh    ::
         ::    -> Ghb                  0.000000000000 Eh    ::
         ::    -> Gshift               0.004148697361 Eh    ::
         :: repulsion energy           1.183121114503 Eh    ::
         :: add. restraining           0.000000000000 Eh    ::
         :: total charge               0.000000000057 e     ::
         :::::::::::::::::::::::::::::::::::::::::::::::::::::

           -------------------------------------------------
          |                Property Printout                |
           -------------------------------------------------

    * Orbital Energies and Occupations

         #    Occupation            Energy/Eh            Energy/eV
      -------------------------------------------------------------
         1        2.0000           -0.7213885             -19.6300
       ...           ...                  ...                  ...
        74        2.0000           -0.4085355             -11.1168
        75        2.0000           -0.4026382             -10.9563
        76        2.0000           -0.4004318             -10.8963
        77        2.0000           -0.3915989             -10.6559
        78        2.0000           -0.3794234             -10.3246
        79        2.0000           -0.3725180             -10.1367
        80        2.0000           -0.3659729              -9.9586
        81        2.0000           -0.3644371              -9.9168
        82        2.0000           -0.2902963              -7.8994
        83        2.0000           -0.2844916              -7.7414
        84        2.0000           -0.2767316              -7.5302
        85        1.9978           -0.2723202              -7.4102
        86        1.0023           -0.2607421              -7.0952 (HOMO)
        87        0.0000           -0.2304324              -6.2704 (LUMO)
        88                         -0.2238264              -6.0906
        89                         -0.2084017              -5.6709
        90                         -0.2028689              -5.5203
        91                         -0.1749533              -4.7607
        92                         -0.1670770              -4.5464
        93                         -0.1444268              -3.9301
        94                         -0.1176825              -3.2023
        95                         -0.0886543              -2.4124
        96                         -0.0687860              -1.8718
        97                         -0.0569272              -1.5491
       ...                                ...                  ...
       171                          2.2968882              62.5015
      -------------------------------------------------------------
                  HL-Gap            0.0303096 Eh            0.8248 eV
             Fermi-level           -0.2560571 Eh           -6.9677 eV

     #   Z          covCN         q      C6AA      α(0)
     1   6 C        3.643     0.030    20.416     6.495
     2   8 O        1.706    -0.259    18.292     5.775
     3   6 C        2.903     0.139    24.969     8.193
     4   6 C        2.915    -0.084    30.102     8.997
     5   6 C        2.924    -0.035    28.877     8.812
     6   6 C        2.913    -0.073    29.819     8.954
     7   6 C        3.067     0.146    24.771     8.161
     8   6 C        2.922    -0.055    29.355     8.885
     9  15 P        4.436     0.022   159.244    22.668
    10   6 C        3.847     0.019    20.221     6.396
    11   6 C        3.792    -0.108    22.570     6.766
    12   6 C        3.873    -0.116    22.672     6.770
    13   6 C        3.849    -0.112    22.595     6.761
    14  77 Ir       2.259    -0.080   345.096    35.595
    15  15 P        4.415    -0.019   161.059    22.797
    16   6 C        3.843     0.012    20.348     6.417
    17   6 C        3.842    -0.109    22.547     6.755
    18   6 C        3.864    -0.101    22.373     6.726
    19   6 C        3.776    -0.102    22.478     6.755
    20   6 C        3.070    -0.041    28.941     8.821
    21   6 C        2.916     0.133    25.093     8.214
    22   8 O        1.850    -0.217    17.582     5.663
    23   6 C        3.640     0.038    20.281     6.477
    24   6 C        2.915    -0.085    30.123     9.000
    25   6 C        2.925    -0.044    29.083     8.844
    26   6 C        2.912    -0.072    29.807     8.953
    27   6 C        3.070     0.140    24.894     8.181
    28   8 O        1.728    -0.284    18.703     5.839
    29   6 C        3.736     0.084    19.264     6.264
    30   6 C        3.745     0.073    19.423     6.287
    31   8 O        1.721    -0.278    18.615     5.825
    32   1 H        0.924     0.050     2.325     2.385
    33   1 H        0.924     0.048     2.346     2.395
    34   1 H        0.925     0.070     2.089     2.260
    35   1 H        0.926     0.044     2.395     2.420
    36   1 H        0.926     0.044     2.396     2.421
    37   1 H        0.926     0.045     2.377     2.411
    38   1 H        0.925     0.043     2.407     2.426
    39   1 H        0.925     0.040     2.453     2.449
    40   1 H        0.925     0.047     2.362     2.404
    41   1 H        0.925     0.044     2.401     2.423
    42   1 H        0.925     0.050     2.319     2.381
    43   1 H        0.925     0.056     2.251     2.346
    44   1 H        0.924     0.048     2.350     2.397
    45   1 H        0.925     0.048     2.342     2.393
    46   1 H        0.925     0.037     2.485     2.465
    47   1 H        0.925     0.045     2.388     2.417
    48   1 H        0.925     0.042     2.419     2.432
    49   1 H        0.925     0.037     2.487     2.466
    50   1 H        0.925     0.035     2.520     2.483
    51   1 H        0.924     0.042     2.418     2.431
    52   1 H        0.925     0.037     2.484     2.465
    53   1 H        0.925     0.033     2.543     2.494
    54   1 H        0.924     0.039     2.467     2.456
    55   1 H        0.925     0.039     2.464     2.455
    56   1 H        0.924     0.045     2.388     2.417
    57   1 H        0.925     0.064     2.150     2.293
    58   1 H        0.924     0.043     2.405     2.425
    59   1 H        0.926     0.036     2.504     2.475
    60   1 H        0.926     0.037     2.483     2.464
    61   1 H        0.926     0.041     2.431     2.438
    62   1 H        0.924     0.055     2.263     2.353
    63   1 H        0.924     0.054     2.273     2.358

 Mol. C6AA /au·bohr⁶  :      52110.763603
 Mol. C8AA /au·bohr⁸  :    1599786.012135
 Mol. α(0) /au        :        364.344893


Wiberg/Mayer (AO) data.
largest (>0.10) Wiberg bond orders for each atom

 ---------------------------------------------------------------------------
     #   Z sym  total        # sym  WBO       # sym  WBO       # sym  WBO
 ---------------------------------------------------------------------------
     1   6 C    3.939 --    34 H    0.979    32 H    0.977    33 H    0.976
                             2 O    0.976
     2   8 O    2.262 --     3 C    1.065     1 C    0.976
     3   6 C    3.936 --     4 C    1.377     8 C    1.315     2 O    1.065
     4   6 C    3.977 --     5 C    1.420     3 C    1.377    35 H    0.965
     5   6 C    3.968 --     6 C    1.449     4 C    1.420    36 H    0.971
     6   6 C    3.977 --     5 C    1.449     7 C    1.353    37 H    0.967
     7   6 C    3.933 --     6 C    1.353     8 C    1.322    31 O    1.070
     8   6 C    3.969 --     7 C    1.322     3 C    1.315     9 P    0.994
     9  15 P    4.468 --    14 Ir   1.293     8 C    0.994    30 C    0.891
                            10 C    0.889
    10   6 C    3.977 --    11 C    0.995    13 C    0.992    12 C    0.992
                             9 P    0.889
    11   6 C    3.994 --    10 C    0.995    38 H    0.979    40 H    0.979
                            39 H    0.977
    12   6 C    3.992 --    10 C    0.992    41 H    0.980    43 H    0.976
                            42 H    0.970
    13   6 C    3.994 --    10 C    0.992    45 H    0.980    46 H    0.977
                            44 H    0.968
    14  77 Ir   2.946 --     9 P    1.293    15 P    0.875    22 O    0.183
                            20 C    0.102
    15  15 P    4.043 --    20 C    0.997    29 C    0.930    14 Ir   0.875
                            16 C    0.856
    16   6 C    3.943 --    19 C    0.997    17 C    0.996    18 C    0.995
                            15 P    0.856
    17   6 C    3.995 --    16 C    0.996    48 H    0.980    49 H    0.978
                            47 H    0.976
    18   6 C    3.996 --    16 C    0.995    52 H    0.980    50 H    0.980
                            51 H    0.975
    19   6 C    3.992 --    16 C    0.997    55 H    0.981    53 H    0.980
                            54 H    0.978
    20   6 C    3.974 --    21 C    1.309    27 C    1.302    15 P    0.997
                            14 Ir   0.102
    21   6 C    3.928 --    24 C    1.405    20 C    1.309    22 O    1.013
    22   8 O    2.355 --    21 C    1.013    23 C    0.975    14 Ir   0.183
    23   6 C    3.941 --    57 H    0.979    58 H    0.978    56 H    0.977
                            22 O    0.975
    24   6 C    3.979 --    21 C    1.405    25 C    1.397    59 H    0.966
    25   6 C    3.985 --    26 C    1.444    24 C    1.397    60 H    0.971
    26   6 C    3.983 --    25 C    1.444    27 C    1.365    61 H    0.967
    27   6 C    3.932 --    26 C    1.365    20 C    1.302    28 O    1.059
    28   8 O    2.230 --    27 C    1.059    29 C    0.954
    29   6 C    3.921 --    30 C    0.961    28 O    0.954    62 H    0.941
                            15 P    0.930
    30   6 C    3.919 --    29 C    0.961    31 O    0.956    63 H    0.934
                             9 P    0.891
    31   8 O    2.242 --     7 C    1.070    30 C    0.956
    32   1 H    0.997 --     1 C    0.977
    33   1 H    0.997 --     1 C    0.976
    34   1 H    0.995 --     1 C    0.979
    35   1 H    0.997 --     4 C    0.965
    36   1 H    0.997 --     5 C    0.971
    37   1 H    0.997 --     6 C    0.967
    38   1 H    0.998 --    11 C    0.979
    39   1 H    0.998 --    11 C    0.977
    40   1 H    0.995 --    11 C    0.979
    41   1 H    0.997 --    12 C    0.980
    42   1 H    0.997 --    12 C    0.970
    43   1 H    0.997 --    12 C    0.976
    44   1 H    0.998 --    13 C    0.968
    45   1 H    0.997 --    13 C    0.980
    46   1 H    0.998 --    13 C    0.977
    47   1 H    0.998 --    17 C    0.976
    48   1 H    0.996 --    17 C    0.980
    49   1 H    0.998 --    17 C    0.978
    50   1 H    0.999 --    18 C    0.980
    51   1 H    0.998 --    18 C    0.975
    52   1 H    0.997 --    18 C    0.980
    53   1 H    0.999 --    19 C    0.980
    54   1 H    0.994 --    19 C    0.978
    55   1 H    0.998 --    19 C    0.981
    56   1 H    0.998 --    23 C    0.977
    57   1 H    0.995 --    23 C    0.979
    58   1 H    0.998 --    23 C    0.978
    59   1 H    0.998 --    24 C    0.966
    60   1 H    0.998 --    25 C    0.971
    61   1 H    0.998 --    26 C    0.967
    62   1 H    0.996 --    29 C    0.941
    63   1 H    0.996 --    30 C    0.934
 ---------------------------------------------------------------------------

Topologies differ in total number of bonds
Writing topology from bond orders to xtbtopo.mol

molecular dipole:
                 x           y           z       tot (Debye)
 q only:       -1.459       0.650      -0.398
   full:       -2.218       0.142      -0.008       5.650
molecular quadrupole (traceless):
                xx          xy          yy          xz          yz          zz
 q only:       -8.684       5.764       4.317      -0.790      -5.643       4.367
  q+dip:       -5.081       7.483       4.660      -2.369      -6.065       0.421
   full:       -5.879       7.256       3.483      -2.722      -6.998       2.396

           -------------------------------------------------
          |                Geometry Summary                 |
           -------------------------------------------------

      molecular mass/u    :      638.6729609
   center of mass at/Å    :        0.4914834      -0.2246314      -0.0081545
  moments of inertia/u·Å² :        0.2832127E+04   0.4950237E+04   0.5334858E+04
rotational constants/cm⁻¹ :        0.5952286E-02   0.3405419E-02   0.3159903E-02

 * 65 selected distances

     #   Z          #   Z                                           value/Å
     1   6 C        2   8 O                                       1.4110346
     2   8 O        3   6 C                                       1.3592835
     3   6 C        4   6 C                                       1.3896170
     4   6 C        5   6 C                                       1.3886861
     5   6 C        6   6 C                                       1.3829931
     6   6 C        7   6 C                                       1.3891575
     3   6 C        8   6 C                                       1.3950887
     7   6 C        8   6 C                                       1.3921567
     8   6 C        9  15 P                                       1.8095904
     9  15 P       10   6 C                                       1.9000401
    10   6 C       11   6 C                                       1.5253900
    10   6 C       12   6 C                                       1.5280206
    10   6 C       13   6 C                                       1.5290649
     9  15 P       14  77 Ir                                      2.2108315
    14  77 Ir      15  15 P                                       2.3128244 (max)
    16   6 C       17   6 C                                       1.5281406
    16   6 C       18   6 C                                       1.5287431
    16   6 C       19   6 C                                       1.5246384
    15  15 P       20   6 C                                       1.8180991
    20   6 C       21   6 C                                       1.3953190
    21   6 C       22   8 O                                       1.3819890
    22   8 O       23   6 C                                       1.4097615
    21   6 C       24   6 C                                       1.3837015
    24   6 C       25   6 C                                       1.3934632
    25   6 C       26   6 C                                       1.3850402
    20   6 C       27   6 C                                       1.3942370
    26   6 C       27   6 C                                       1.3869421
    27   6 C       28   8 O                                       1.3591925
    15  15 P       29   6 C                                       1.8936841
    28   8 O       29   6 C                                       1.4262549
    29   6 C       30   6 C                                       1.5465795
     7   6 C       31   8 O                                       1.3530390
    30   6 C       31   8 O                                       1.4233428
     1   6 C       32   1 H                                       1.0939508
     1   6 C       33   1 H                                       1.0947470
     1   6 C       34   1 H                                       1.0889309
     4   6 C       35   1 H                                       1.0782403
     5   6 C       36   1 H                                       1.0799522
     6   6 C       37   1 H                                       1.0781764 (min)
    11   6 C       38   1 H                                       1.0885298
    11   6 C       39   1 H                                       1.0880665
    11   6 C       40   1 H                                       1.0897185
    12   6 C       41   1 H                                       1.0891251
    12   6 C       42   1 H                                       1.0897974
    12   6 C       43   1 H                                       1.0866024
    13   6 C       44   1 H                                       1.0912088
    13   6 C       45   1 H                                       1.0889982
    13   6 C       46   1 H                                       1.0879783
    17   6 C       47   1 H                                       1.0901351
    17   6 C       48   1 H                                       1.0895735
    17   6 C       49   1 H                                       1.0889320
    18   6 C       50   1 H                                       1.0894200
    18   6 C       51   1 H                                       1.0904864
    18   6 C       52   1 H                                       1.0895337
    19   6 C       53   1 H                                       1.0891017
    19   6 C       54   1 H                                       1.0906508
    19   6 C       55   1 H                                       1.0875521
    23   6 C       56   1 H                                       1.0953438
    23   6 C       57   1 H                                       1.0898679
    23   6 C       58   1 H                                       1.0942210
    24   6 C       59   1 H                                       1.0787000
    25   6 C       60   1 H                                       1.0794801
    26   6 C       61   1 H                                       1.0783646
    29   6 C       62   1 H                                       1.0968309
    30   6 C       63   1 H                                       1.0990788

 * 5 distinct bonds (by element types)

   Z      Z             #   av. dist./Å        max./Å        min./Å
   1 H    6 C          32     1.0884780     1.0990788     1.0781764
   6 C    6 C          19     1.4414200     1.5465795     1.3829931
   6 C    8 O           8     1.3904872     1.4262549     1.3530390
   6 C   15 P           4     1.8553534     1.9000401     1.8095904
  15 P   77 Ir          2     2.2618280     2.3128244     2.2108315


optimized geometry written to: xtbopt.xyz


           -------------------------------------------------
          | TOTAL ENERGY              -92.922098292256 Eh   |
          | GRADIENT NORM               0.000053765266 Eh/α |
          | HOMO-LUMO GAP               0.824767304662 eV   |
           -------------------------------------------------

------------------------------------------------------------------------
 * finished run on 2022/10/30 at 22:21:13.743     
------------------------------------------------------------------------
 total:
 * wall-time:     0 d,  0 h,  0 min,  9.755 sec
 *  cpu-time:     0 d,  0 h,  1 min,  9.618 sec
 * ratio c/w:     7.137 speedup
 SCF:
 * wall-time:     0 d,  0 h,  0 min,  0.181 sec
 *  cpu-time:     0 d,  0 h,  0 min,  1.129 sec
 * ratio c/w:     6.246 speedup
 ANC optimizer:
 * wall-time:     0 d,  0 h,  0 min,  8.396 sec
 *  cpu-time:     0 d,  0 h,  1 min,  6.803 sec
 * ratio c/w:     7.956 speedup

