      -----------------------------------------------------------      
     |                   =====================                   |     
     |                           x T B                           |     
     |                   =====================                   |     
     |                         S. Grimme                         |     
     |          Mulliken Center for Theoretical Chemistry        |     
     |                    University of Bonn                     |     
      -----------------------------------------------------------      

   * xtb version 6.5.1 (b24c23e) compiled by 'conda@728c89f4b128' on 2022-07-12

   xtb is free software: you can redistribute it and/or modify it under
   the terms of the GNU Lesser General Public License as published by
   the Free Software Foundation, either version 3 of the License, or
   (at your option) any later version.
   
   xtb is distributed in the hope that it will be useful,
   but WITHOUT ANY WARRANTY; without even the implied warranty of
   MERCHANTABILITY or FITNESS FOR A PARTICULAR PURPOSE.  See the
   GNU Lesser General Public License for more details.
   
   Cite this work as:
   * C. Bannwarth, E. Caldeweyher, S. Ehlert, A. Hansen, P. Pracht,
     J. Seibert, S. Spicher, S. Grimme, WIREs Comput. Mol. Sci., 2020, 11,
     e01493. DOI: 10.1002/wcms.1493
   
   for GFN2-xTB:
   * C. Bannwarth, S. Ehlert and S. Grimme., J. Chem. Theory Comput., 2019,
     15, 1652-1671. DOI: 10.1021/acs.jctc.8b01176
   for GFN1-xTB:
   * S. Grimme, C. Bannwarth, P. Shushkov, J. Chem. Theory Comput., 2017,
     13, 1989-2009. DOI: 10.1021/acs.jctc.7b00118
   for GFN0-xTB:
   * P. Pracht, E. Caldeweyher, S. Ehlert, S. Grimme, ChemRxiv, 2019, preprint.
     DOI: 10.26434/chemrxiv.8326202.v1
   for GFN-FF:
   * S. Spicher and S. Grimme, Angew. Chem. Int. Ed., 2020, 59, 15665-15673.
     DOI: 10.1002/anie.202004239
   
   for ALPB and GBSA implicit solvation:
   * S. Ehlert, M. Stahn, S. Spicher, S. Grimme, J. Chem. Theory Comput.,
     2021, 17, 4250-4261. DOI: 10.1021/acs.jctc.1c00471
   
   for DFT-D4:
   * E. Caldeweyher, C. Bannwarth and S. Grimme, J. Chem. Phys., 2017,
     147, 034112. DOI: 10.1063/1.4993215
   * E. Caldeweyher, S. Ehlert, A. Hansen, H. Neugebauer, S. Spicher,
     C. Bannwarth and S. Grimme, J. Chem. Phys., 2019, 150, 154122.
     DOI: 10.1063/1.5090222
   * E. Caldeweyher, J.-M. Mewes, S. Ehlert and S. Grimme, Phys. Chem. Chem. Phys.
     2020, 22, 8499-8512. DOI: 10.1039/D0CP00502A
   
   for sTDA-xTB:
   * S. Grimme and C. Bannwarth, J. Chem. Phys., 2016, 145, 054103.
     DOI: 10.1063/1.4959605
   
   in the mass-spec context:
   * V. Asgeirsson, C. Bauer and S. Grimme, Chem. Sci., 2017, 8, 4879.
     DOI: 10.1039/c7sc00601b
   * J. Koopman and S. Grimme, ACS Omega 2019, 4, 12, 15120-15133.
     DOI: 10.1021/acsomega.9b02011
   
   for metadynamics refer to:
   * S. Grimme, J. Chem. Theory Comput., 2019, 155, 2847-2862
     DOI: 10.1021/acs.jctc.9b00143
   
   for SPH calculations refer to:
   * S. Spicher and S. Grimme, J. Chem. Theory Comput., 2021, 17, 1701-1714
     DOI: 10.1021/acs.jctc.0c01306
   
   with help from (in alphabetical order)
   P. Atkinson, C. Bannwarth, F. Bohle, G. Brandenburg, E. Caldeweyher
   M. Checinski, S. Dohm, S. Ehlert, S. Ehrlich, I. Gerasimov, C. Hölzer
   A. Katbashev, J. Koopman, C. Lavigne, S. Lehtola, F. März, M. Müller,
   F. Musil, H. Neugebauer, J. Pisarek, C. Plett, P. Pracht, F. Pultar,
   J. Seibert, P. Shushkov, S. Spicher, M. Stahn, M. Steiner, T. Strunk,
   J. Stückrath, T. Rose, and J. Unsleber
   
 * started run on 2022/11/14 at 22:12:30.757     

           -------------------------------------------------
          |                Calculation Setup                |
           -------------------------------------------------

          program call               : xtb para_trifluoromethyl_phenyl.xyz --gfn2 --chrg 0 --uhf 1 --alpb ch2cl2 --opt 1
          coordinate file            : para_trifluoromethyl_phenyl.xyz
          omp threads                :                     8

   ID    Z sym.   atoms
    1    6 C      1-6, 11
    2    1 H      7-10
    3    9 F      12-14

           -------------------------------------------------
          |                 G F N 2 - x T B                 |
           -------------------------------------------------

        Reference                      10.1021/acs.jctc.8b01176
      * Hamiltonian:
        H0-scaling (s, p, d)           1.850000    2.230000    2.230000
        zeta-weighting                 0.500000
      * Dispersion:
        s8                             2.700000
        a1                             0.520000
        a2                             5.000000
        s9                             5.000000
      * Repulsion:
        kExp                           1.500000    1.000000
        rExp                           1.000000
      * Coulomb:
        alpha                          2.000000
        third order                    shell-resolved
        anisotropic                    true
        a3                             3.000000
        a5                             4.000000
        cn-shift                       1.200000
        cn-exp                         4.000000
        max-rad                        5.000000

      * Solvation model:               ALPB
        Solvent                        ch2cl2
        Parameter file                 internal GFN2-xTB/ALPB
        Dielectric constant                8.9300E+00
        Reference state                gsolv [1 M gas/solution]
        Free energy shift                  4.1487E-03 Eh       2.6033E+00 kcal/mol
        Temperature                        2.9815E+02 K
        Density                            1.3300E+00 kg/L
        Solvent mass                       8.4930E+01 g/mol
        Interaction kernel             P16
        Born radius scaling (c1)           1.5691E+00
        Born radii integrator          GBOBC
        Born offset                        0.0000E+00 a0       0.0000E+00 AA
        H-bond correction              false
        Ion screening                  false
        Surface tension                    1.0000E-05 Eh       1.5569E+01 dyn/cm
        Grid points                               230 per atom

          ...................................................
          :                      SETUP                      :
          :.................................................:
          :  # basis functions                  44          :
          :  # atomic orbitals                  44          :
          :  # shells                           24          :
          :  # electrons                        53          :
          :  max. iterations                   250          :
          :  Hamiltonian                  GFN2-xTB          :
          :  restarted?                      false          :
          :  GBSA solvation                   true          :
          :  PC potential                    false          :
          :  electronic temp.          300.0000000     K    :
          :  accuracy                    1.0000000          :
          :  -> integral cutoff          0.2500000E+02      :
          :  -> integral neglect         0.1000000E-07      :
          :  -> SCF convergence          0.1000000E-05 Eh   :
          :  -> wf. convergence          0.1000000E-03 e    :
          :  Broyden damping             0.4000000          :
          ...................................................

 iter      E             dE          RMSdq      gap      omega  full diag
   1    -31.3655317 -0.313655E+02  0.551E+00    2.74       0.0  T
   2    -31.4190443 -0.535127E-01  0.320E+00    2.71       1.0  T
   3    -31.4198159 -0.771589E-03  0.125E+00    2.70       1.0  T
   4    -31.4225377 -0.272177E-02  0.174E-01    2.70       1.0  T
   5    -31.4227065 -0.168755E-03  0.987E-02    2.68       1.0  T
   6    -31.4227478 -0.413119E-04  0.322E-02    2.69       1.0  T
   7    -31.4227478  0.310104E-08  0.171E-02    2.69       1.6  T
   8    -31.4227495 -0.170230E-05  0.346E-03    2.69       7.7  T
   9    -31.4227494  0.591589E-07  0.260E-03    2.69      10.3  T
  10    -31.4227495 -0.912712E-07  0.983E-04    2.69      27.2  T
  11    -31.4227495 -0.869838E-08  0.126E-04    2.69     212.1  T

   *** convergence criteria satisfied after 11 iterations ***

         #    Occupation            Energy/Eh            Energy/eV
      -------------------------------------------------------------
         1        2.0000           -0.8876678             -24.1547
       ...           ...                  ...                  ...
        21        2.0000           -0.5056772             -13.7602
        22        2.0000           -0.5025503             -13.6751
        23        2.0000           -0.4846079             -13.1869
        24        2.0000           -0.4488423             -12.2136
        25        2.0000           -0.4331200             -11.7858
        26        2.0000           -0.4331117             -11.7856
        27        1.0000           -0.3592851              -9.7766 (HOMO)
        28                         -0.2603467              -7.0844 (LUMO)
        29                         -0.2559386              -6.9644
        30                         -0.1320796              -3.5941
        31                          0.0022742               0.0619
        32                          0.0359376               0.9779
       ...                                ...                  ...
        44                          0.5717465              15.5580
      -------------------------------------------------------------
                  HL-Gap            0.0989384 Eh            2.6923 eV
             Fermi-level           -0.3530072 Eh           -9.6058 eV

 SCC (total)                   0 d,  0 h,  0 min,  2.113 sec
 SCC setup                      ...        0 min,  0.024 sec (  1.141%)
 Dispersion                     ...        0 min,  0.012 sec (  0.560%)
 classical contributions        ...        0 min,  0.006 sec (  0.295%)
 integral evaluation            ...        0 min,  0.016 sec (  0.767%)
 iterations                     ...        0 min,  1.729 sec ( 81.820%)
 molecular gradient             ...        0 min,  0.325 sec ( 15.387%)
 printout                       ...        0 min,  0.000 sec (  0.011%)

         :::::::::::::::::::::::::::::::::::::::::::::::::::::
         ::                     SUMMARY                     ::
         :::::::::::::::::::::::::::::::::::::::::::::::::::::
         :: total energy             -31.123326829255 Eh    ::
         :: total w/o Gsasa/hb       -31.117349944027 Eh    ::
         :: gradient norm              0.074645830946 Eh/a0 ::
         :: HOMO-LUMO gap              2.692250813912 eV    ::
         ::.................................................::
         :: SCC energy               -31.422749504392 Eh    ::
         :: -> isotropic ES            0.042868665090 Eh    ::
         :: -> anisotropic ES         -0.001810687112 Eh    ::
         :: -> anisotropic XC         -0.006356908274 Eh    ::
         :: -> dispersion             -0.011082850934 Eh    ::
         :: -> Gsolv                  -0.008724580713 Eh    ::
         ::    -> Gelec               -0.002747695485 Eh    ::
         ::    -> Gsasa               -0.010125582589 Eh    ::
         ::    -> Ghb                  0.000000000000 Eh    ::
         ::    -> Gshift               0.004148697361 Eh    ::
         :: repulsion energy           0.299396101759 Eh    ::
         :: add. restraining           0.000000000000 Eh    ::
         :: total charge               0.000000000000 e     ::
         :::::::::::::::::::::::::::::::::::::::::::::::::::::

      ----------------------------------------------------------- 
     |                   =====================                   |
     |                        A N C O P T                        |
     |                   =====================                   |
     |               Approximate Normal Coordinate               |
     |                Rational Function Optimizer                |
      ----------------------------------------------------------- 

          ...................................................
          :                      SETUP                      :
          :.................................................:
          :   optimization level             tight          :
          :   max. optcycles                   200          :
          :   ANC micro-cycles                  20          :
          :   degrees of freedom                36          :
          :.................................................:
          :   RF solver                   davidson          :
          :   write xtbopt.log                true          :
          :   linear?                        false          :
          :   energy convergence         0.1000000E-05 Eh   :
          :   grad. convergence          0.8000000E-03 Eh/α :
          :   maximium RF displ.         1.0000000          :
          :   Hlow (freq-cutoff)         0.1000000E-01      :
          :   Hmax (freq-cutoff)         5.0000000          :
          :   S6 in model hess.         20.0000000          :
          ...................................................

generating ANC from model Hessian ...
Using Lindh-Hessian (1995)
 Shifting diagonal of input Hessian by    3.7639395535827317E-003
 Lowest  eigenvalues of input Hessian
    0.000000    0.000000    0.000000    0.000000    0.000000    0.000000
    0.010000    0.011225    0.017018    0.019823    0.021604    0.038627
    0.054083    0.057395    0.074459    0.081016    0.090264    0.095474
 Highest eigenvalues
    1.477346    1.691438    1.704151    1.813174    1.878655    1.892291


........................................................................
.............................. CYCLE    1 ..............................
........................................................................
   1    -31.4227495 -0.314227E+02  0.161E-05    2.69       0.0  T
   2    -31.4227495 -0.103384E-11  0.875E-06    2.69    3053.6  T
   3    -31.4227495 -0.675016E-13  0.521E-06    2.69    5129.6  T
     SCC iter.                  ...        0 min,  0.559 sec
     gradient                   ...        0 min,  0.286 sec
 * total energy  :   -31.1233268 Eh     change       -0.3843326E-10 Eh
   gradient norm :     0.0746365 Eh/α   predicted     0.0000000E+00 (-100.00%)
   displ. norm   :     0.1680225 α      lambda       -0.1006803E-01
   maximum displ.:     0.1496631 α      in ANC's #23, #7, #31, ...

........................................................................
.............................. CYCLE    2 ..............................
........................................................................
   1    -31.4543970 -0.314544E+02  0.241E-01    2.56       0.0  T
   2    -31.4544244 -0.274125E-04  0.145E-01    2.56       1.0  T
   3    -31.4544085  0.159578E-04  0.542E-02    2.57       1.0  T
   4    -31.4544330 -0.245152E-04  0.113E-02    2.57       2.4  T
   5    -31.4544333 -0.295183E-06  0.707E-03    2.57       3.8  T
   6    -31.4544334 -0.137571E-06  0.218E-03    2.57      12.3  T
   7    -31.4544334 -0.276140E-07  0.768E-04    2.57      34.8  T
   8    -31.4544334 -0.220142E-08  0.249E-04    2.57     107.5  T
     SCC iter.                  ...        0 min,  1.584 sec
     gradient                   ...        0 min,  0.058 sec
 * total energy  :   -31.1299037 Eh     change       -0.6576914E-02 Eh
   gradient norm :     0.0308461 Eh/α   predicted    -0.5176134E-02 ( -21.30%)
   displ. norm   :     0.1040862 α      lambda       -0.2100357E-02
   maximum displ.:     0.0752350 α      in ANC's #23, #7, #1, ...

........................................................................
.............................. CYCLE    3 ..............................
........................................................................
   1    -31.4654081 -0.314654E+02  0.164E-01    2.47       0.0  T
   2    -31.4654185 -0.103945E-04  0.978E-02    2.47       1.0  T
   3    -31.4654114  0.703643E-05  0.353E-02    2.48       1.0  T
   4    -31.4654216 -0.101964E-04  0.637E-03    2.48       4.2  T
   5    -31.4654217 -0.118645E-06  0.395E-03    2.48       6.8  T
   6    -31.4654218 -0.261632E-07  0.117E-03    2.48      22.8  T
   7    -31.4654218 -0.985255E-08  0.356E-04    2.48      75.1  T
   8    -31.4654218 -0.256911E-09  0.123E-04    2.48     216.5  T
     SCC iter.                  ...        0 min,  0.926 sec
     gradient                   ...        0 min,  0.052 sec
 * total energy  :   -31.1309449 Eh     change       -0.1041195E-02 Eh
   gradient norm :     0.0061432 Eh/α   predicted    -0.1061555E-02 (   1.96%)
   displ. norm   :     0.0261033 α      lambda       -0.6726068E-04
   maximum displ.:     0.0182367 α      in ANC's #1, #7, #17, ...

........................................................................
.............................. CYCLE    4 ..............................
........................................................................
   1    -31.4636361 -0.314636E+02  0.247E-02    2.47       0.0  T
   2    -31.4636362 -0.987233E-07  0.147E-02    2.47       1.8  T
   3    -31.4636361  0.900725E-07  0.341E-03    2.47       7.8  T
   4    -31.4636362 -0.124829E-06  0.819E-04    2.47      32.6  T
   5    -31.4636362 -0.162303E-08  0.260E-04    2.47     102.6  T
     SCC iter.                  ...        0 min,  0.500 sec
     gradient                   ...        0 min,  0.071 sec
 * total energy  :   -31.1309896 Eh     change       -0.4470620E-04 Eh
   gradient norm :     0.0027290 Eh/α   predicted    -0.3365349E-04 ( -24.72%)
   displ. norm   :     0.0212164 α      lambda       -0.1719793E-04
   maximum displ.:     0.0173608 α      in ANC's #1, #7, #11, ...

........................................................................
.............................. CYCLE    5 ..............................
........................................................................
   1    -31.4628607 -0.314629E+02  0.174E-02    2.47       0.0  T
   2    -31.4628608 -0.857636E-07  0.103E-02    2.47       2.6  T
   3    -31.4628608  0.346413E-07  0.274E-03    2.47       9.8  T
   4    -31.4628608 -0.596737E-07  0.816E-04    2.47      32.8  T
   5    -31.4628608 -0.189011E-08  0.174E-04    2.47     153.7  T
     SCC iter.                  ...        0 min,  0.453 sec
     gradient                   ...        0 min,  0.054 sec
 * total energy  :   -31.1309992 Eh     change       -0.9532518E-05 Eh
   gradient norm :     0.0014535 Eh/α   predicted    -0.8601128E-05 (  -9.77%)
   displ. norm   :     0.0126176 α      lambda       -0.2775244E-05
   maximum displ.:     0.0108310 α      in ANC's #1, #8, #6, ...

........................................................................
.............................. CYCLE    6 ..............................
........................................................................
   1    -31.4628761 -0.314629E+02  0.109E-02    2.47       0.0  T
   2    -31.4628761 -0.713978E-07  0.648E-03    2.47       4.1  T
   3    -31.4628761 -0.424877E-08  0.153E-03    2.47      17.4  T
   4    -31.4628761 -0.819605E-08  0.704E-04    2.47      38.0  T
   5    -31.4628761 -0.250388E-08  0.179E-04    2.47     149.2  T
     SCC iter.                  ...        0 min,  0.391 sec
     gradient                   ...        0 min,  0.039 sec
 * total energy  :   -31.1310011 Eh     change       -0.1903664E-05 Eh
   gradient norm :     0.0008540 Eh/α   predicted    -0.1385932E-05 ( -27.20%)
   displ. norm   :     0.0064015 α      lambda       -0.1383575E-05
   maximum displ.:     0.0047903 α      in ANC's #1, #8, #2, ...

........................................................................
.............................. CYCLE    7 ..............................
........................................................................
   1    -31.4630567 -0.314631E+02  0.679E-03    2.47       0.0  T
   2    -31.4630567 -0.253446E-07  0.402E-03    2.47       6.6  T
   3    -31.4630567 -0.374015E-08  0.806E-04    2.47      33.2  T
   4    -31.4630567 -0.415639E-09  0.407E-04    2.47      65.6  T
     SCC iter.                  ...        0 min,  0.361 sec
     gradient                   ...        0 min,  0.029 sec
 * total energy  :   -31.1310020 Eh     change       -0.9317438E-06 Eh
   gradient norm :     0.0002922 Eh/α   predicted    -0.6905478E-06 ( -25.89%)
   displ. norm   :     0.0018491 α      lambda       -0.1943733E-06
   maximum displ.:     0.0007935 α      in ANC's #7, #8, #1, ...

   *** GEOMETRY OPTIMIZATION CONVERGED AFTER 7 ITERATIONS ***

------------------------------------------------------------------------
 total energy gain   :        -0.0076752 Eh       -4.8163 kcal/mol
 total RMSD          :         0.0678990 a0        0.0359 Å
 total power (kW/mol):        -2.8787416 (step)   -3.1935 (real)
------------------------------------------------------------------------

 ANCopt (total)                0 d,  0 h,  0 min,  6.310 sec
 optimizer setup                ...        0 min,  0.001 sec (  0.009%)
 model hessian                  ...        0 min,  0.028 sec (  0.441%)
 ANC generation                 ...        0 min,  0.057 sec (  0.909%)
 coordinate transformation      ...        0 min,  0.000 sec (  0.001%)
 single point calculation       ...        0 min,  6.149 sec ( 97.446%)
 optimization log               ...        0 min,  0.001 sec (  0.023%)
 hessian update                 ...        0 min,  0.072 sec (  1.135%)
 rational function              ...        0 min,  0.002 sec (  0.024%)

================
 final structure:
================
14
 xtb: 6.5.1 (b24c23e)
C            1.35823485424114        2.35198665735774        0.01127458582184
C            0.01178996636717        0.02095147802067       -0.02194182270079
C            1.40182193657093        0.00086954763790       -0.00953311972432
C            2.09809122205067        1.20657566491155        0.00547515379549
C           -0.00361727575956        2.42067856882560        0.00436856868592
C           -0.69994069551950        1.21500024111233       -0.01019689272038
H            1.93572570175116       -0.93798200015953       -0.01720894831733
H            3.17667197158878        1.21323587480929        0.01175667723529
H           -0.53702661689800        3.35813507096314        0.01105745214464
H           -1.77998828973380        1.20822151490192       -0.01801608891946
C           -0.73841662638473       -1.27905899852029       -0.00516533952510
F           -0.98314738417994       -1.71484080202000        1.25243941738734
F           -1.94050636485294       -1.20693058478512       -0.60336055685369
F           -0.07848094924137       -2.28076476305520       -0.61297875630945

 Bond Distances (Angstroems)
 ---------------------------
C1-C4=1.3636         C1-C5=1.3636         C2-C3=1.3902         C2-C6=1.3901         C2-C11=1.5010        C3-C2=1.3902         
C3-C4=1.3924         C3-H7=1.0801         C4-C1=1.3636         C4-C3=1.3924         C4-H8=1.0786         C5-C1=1.3636         
C5-C6=1.3924         C5-H9=1.0786         C6-C2=1.3901         C6-C5=1.3924         C6-H10=1.0801        H7-C3=1.0801         
H8-C4=1.0786         H9-C5=1.0786         H10-C6=1.0801        C11-C2=1.5010        C11-F12=1.3533       C11-F13=1.3446       
C11-F14=1.3448       F12-C11=1.3533       F13-C11=1.3446       F14-C11=1.3448       
 C  H  Rav=1.0793 sigma=0.0007  Rmin=1.0786  Rmax=1.0801     4
 C  C  Rav=1.3991 sigma=0.0434  Rmin=1.3636  Rmax=1.5010     7
 F  C  Rav=1.3476 sigma=0.0040  Rmin=1.3446  Rmax=1.3533     3

 selected bond angles (degree)
 --------------------
C5-C1-C4=125.74                C6-C2-C3=121.62                C11-C2-C3=119.15               C11-C2-C6=119.20               
C4-C3-C2=119.18                H7-C3-C2=120.45                H7-C3-C4=120.37                C3-C4-C1=117.14                
H8-C4-C1=122.50                H8-C4-C3=120.36                C6-C5-C1=117.12                H9-C5-C1=122.52                
H9-C5-C6=120.35                C5-C6-C2=119.20                H10-C6-C2=120.43               H10-C6-C5=120.37               

 selected dihedral angles (degree)
 ---------------------------------
C4-C3-C2-C6=359.54            C4-C3-C2-C11=181.44           H7-C3-C2-C6=179.89            H7-C3-C2-C11=  1.79           
C3-C4-C1-C5=  0.04            H8-C4-C1-C5=180.02            C1-C4-C3-C2=  0.20            C1-C4-C3-H7=179.85            
H8-C4-C3-C2=180.22            H8-C4-C3-H7=359.87            C6-C5-C1-C4=  0.00            H9-C5-C1-C4=179.90            
C5-C6-C2-C3=  0.48            C5-C6-C2-C11=178.58           H10-C6-C2-C3=180.13           H10-C6-C2-C11=358.23          
C2-C6-C5-C1=359.76            C2-C6-C5-H9=179.84            H10-C6-C5-C1=180.11           H10-C6-C5-H9=  0.19           
           -------------------------------------------------
          |                Final Singlepoint                |
           -------------------------------------------------

          ...................................................
          :                      SETUP                      :
          :.................................................:
          :  # basis functions                  44          :
          :  # atomic orbitals                  44          :
          :  # shells                           24          :
          :  # electrons                        53          :
          :  max. iterations                   250          :
          :  Hamiltonian                  GFN2-xTB          :
          :  restarted?                      false          :
          :  GBSA solvation                   true          :
          :  PC potential                    false          :
          :  electronic temp.          300.0000000     K    :
          :  accuracy                    1.0000000          :
          :  -> integral cutoff          0.2500000E+02      :
          :  -> integral neglect         0.1000000E-07      :
          :  -> SCF convergence          0.1000000E-05 Eh   :
          :  -> wf. convergence          0.1000000E-03 e    :
          :  Broyden damping             0.4000000          :
          ...................................................

 iter      E             dE          RMSdq      gap      omega  full diag
   1    -31.4630567 -0.314631E+02  0.565E-05    2.47       0.0  T
   2    -31.4630567 -0.144311E-10  0.324E-05    2.47     824.0  T
   3    -31.4630567 -0.443023E-11  0.182E-05    2.47    1468.7  T

   *** convergence criteria satisfied after 3 iterations ***

         #    Occupation            Energy/Eh            Energy/eV
      -------------------------------------------------------------
         1        2.0000           -0.8878346             -24.1592
       ...           ...                  ...                  ...
        21        2.0000           -0.5114402             -13.9170
        22        2.0000           -0.5073749             -13.8064
        23        2.0000           -0.4892993             -13.3145
        24        2.0000           -0.4554307             -12.3929
        25        2.0000           -0.4384626             -11.9312
        26        2.0000           -0.4372814             -11.8990
        27        1.0000           -0.3496221              -9.5137 (HOMO)
        28                         -0.2588429              -7.0435 (LUMO)
        29                         -0.2588077              -7.0425
        30                         -0.1261163              -3.4318
        31                          0.0260547               0.7090
        32                          0.0287373               0.7820
       ...                                ...                  ...
        44                          0.6218413              16.9212
      -------------------------------------------------------------
                  HL-Gap            0.0907793 Eh            2.4702 eV
             Fermi-level           -0.3488421 Eh           -9.4925 eV

 SCC (total)                   0 d,  0 h,  0 min,  0.323 sec
 SCC setup                      ...        0 min,  0.029 sec (  9.117%)
 Dispersion                     ...        0 min,  0.000 sec (  0.020%)
 classical contributions        ...        0 min,  0.000 sec (  0.005%)
 integral evaluation            ...        0 min,  0.001 sec (  0.240%)
 iterations                     ...        0 min,  0.249 sec ( 76.956%)
 molecular gradient             ...        0 min,  0.041 sec ( 12.749%)
 printout                       ...        0 min,  0.003 sec (  0.888%)

         :::::::::::::::::::::::::::::::::::::::::::::::::::::
         ::                     SUMMARY                     ::
         :::::::::::::::::::::::::::::::::::::::::::::::::::::
         :: total energy             -31.131002013732 Eh    ::
         :: total w/o Gsasa/hb       -31.125173353964 Eh    ::
         :: gradient norm              0.000294016911 Eh/a0 ::
         :: HOMO-LUMO gap              2.470229204692 eV    ::
         ::.................................................::
         :: SCC energy               -31.463056716074 Eh    ::
         :: -> isotropic ES            0.045416410527 Eh    ::
         :: -> anisotropic ES         -0.002743949315 Eh    ::
         :: -> anisotropic XC         -0.007834024283 Eh    ::
         :: -> dispersion             -0.011122241816 Eh    ::
         :: -> Gsolv                  -0.009275730197 Eh    ::
         ::    -> Gelec               -0.003447070429 Eh    ::
         ::    -> Gsasa               -0.009977357129 Eh    ::
         ::    -> Ghb                  0.000000000000 Eh    ::
         ::    -> Gshift               0.004148697361 Eh    ::
         :: repulsion energy           0.332029143691 Eh    ::
         :: add. restraining           0.000000000000 Eh    ::
         :: total charge              -0.000000000000 e     ::
         :::::::::::::::::::::::::::::::::::::::::::::::::::::

           -------------------------------------------------
          |                Property Printout                |
           -------------------------------------------------

    * Orbital Energies and Occupations

         #    Occupation            Energy/Eh            Energy/eV
      -------------------------------------------------------------
         1        2.0000           -0.8878346             -24.1592
       ...           ...                  ...                  ...
        15        2.0000           -0.5443049             -14.8113
        16        2.0000           -0.5423173             -14.7572
        17        2.0000           -0.5421046             -14.7514
        18        2.0000           -0.5373230             -14.6213
        19        2.0000           -0.5241962             -14.2641
        20        2.0000           -0.5194393             -14.1347
        21        2.0000           -0.5114402             -13.9170
        22        2.0000           -0.5073749             -13.8064
        23        2.0000           -0.4892993             -13.3145
        24        2.0000           -0.4554307             -12.3929
        25        2.0000           -0.4384626             -11.9312
        26        2.0000           -0.4372814             -11.8990
        27        1.0000           -0.3496221              -9.5137 (HOMO)
        28                         -0.2588429              -7.0435 (LUMO)
        29                         -0.2588077              -7.0425
        30                         -0.1261163              -3.4318
        31                          0.0260547               0.7090
        32                          0.0287373               0.7820
        33                          0.0666986               1.8150
        34                          0.1130366               3.0759
        35                          0.1200313               3.2662
        36                          0.1549462               4.2163
        37                          0.1581861               4.3045
        38                          0.1910452               5.1986
       ...                                ...                  ...
        44                          0.6218413              16.9212
      -------------------------------------------------------------
                  HL-Gap            0.0907793 Eh            2.4702 eV
             Fermi-level           -0.3488421 Eh           -9.4925 eV

     #   Z          covCN         q      C6AA      α(0)
     1   6 C        2.022    -0.039    32.065     9.145
     2   6 C        2.974    -0.030    28.752     8.796
     3   6 C        2.932    -0.018    28.465     8.750
     4   6 C        2.915    -0.010    28.257     8.717
     5   6 C        2.915    -0.010    28.257     8.717
     6   6 C        2.932    -0.018    28.465     8.750
     7   1 H        0.926     0.068     2.110     2.272
     8   1 H        0.926     0.077     2.014     2.219
     9   1 H        0.926     0.077     2.014     2.219
    10   1 H        0.926     0.068     2.109     2.271
    11   6 C        3.337     0.487    17.257     6.577
    12   9 F        0.791    -0.222    11.460     3.999
    13   9 F        0.791    -0.215    11.388     3.986
    14   9 F        0.791    -0.215    11.389     3.986

 Mol. C6AA /au·bohr⁶  :       2707.976732
 Mol. C8AA /au·bohr⁸  :      65902.090389
 Mol. α(0) /au        :         80.404106


Wiberg/Mayer (AO) data.
largest (>0.10) Wiberg bond orders for each atom

 ---------------------------------------------------------------------------
     #   Z sym  total        # sym  WBO       # sym  WBO       # sym  WBO
 ---------------------------------------------------------------------------
     1   6 C    3.096 --     5 C    1.467     4 C    1.467     2 C    0.102
     2   6 C    3.965 --     6 C    1.414     3 C    1.413    11 C    0.948
                             1 C    0.102
     3   6 C    3.933 --     2 C    1.413     4 C    1.392     7 H    0.959
                             5 C    0.114
     4   6 C    3.955 --     1 C    1.467     3 C    1.392     8 H    0.954
                             6 C    0.114
     5   6 C    3.955 --     1 C    1.467     6 C    1.392     9 H    0.954
                             3 C    0.114
     6   6 C    3.933 --     2 C    1.414     5 C    1.392    10 H    0.959
                             4 C    0.114
     7   1 H    0.986 --     3 C    0.959
     8   1 H    0.980 --     4 C    0.954
     9   1 H    0.980 --     5 C    0.954
    10   1 H    0.986 --     6 C    0.959
    11   6 C    3.804 --     2 C    0.948    13 F    0.944    14 F    0.944
                            12 F    0.930
    12   9 F    1.058 --    11 C    0.930
    13   9 F    1.066 --    11 C    0.944
    14   9 F    1.066 --    11 C    0.944
 ---------------------------------------------------------------------------

Topologies differ in total number of bonds
Writing topology from bond orders to xtbtopo.mol

molecular dipole:
                 x           y           z       tot (Debye)
 q only:        0.789       1.368      -0.036
   full:        0.681       1.182      -0.037       3.470
molecular quadrupole (traceless):
                xx          xy          yy          xz          yz          zz
 q only:        2.968      -3.752      -1.367       0.079       0.134      -1.601
  q+dip:        5.408      -5.538      -0.986       0.075       0.127      -4.422
   full:        3.789      -5.171      -2.184       0.063       0.108      -1.606

           -------------------------------------------------
          |                Geometry Summary                 |
           -------------------------------------------------

      molecular mass/u    :      145.1021238
   center of mass at/Å    :       -0.0899079      -0.1561111       0.0025116
  moments of inertia/u·Å² :        0.1770641E+03   0.5137481E+03   0.6030798E+03
rotational constants/cm⁻¹ :        0.9520636E-01   0.3281303E-01   0.2795257E-01

 * 13 selected distances

     #   Z          #   Z                                           value/Å
     2   6 C        3   6 C                                       1.3902325
     1   6 C        4   6 C                                       1.3635937
     3   6 C        4   6 C                                       1.3923878 (max)
     1   6 C        5   6 C                                       1.3636011
     2   6 C        6   6 C                                       1.3901264
     5   6 C        6   6 C                                       1.3923861
     3   6 C        7   1 H                                       1.0800716
     4   6 C        8   1 H                                       1.0786197
     5   6 C        9   1 H                                       1.0786080 (min)
     6   6 C       10   1 H                                       1.0800973
    11   6 C       12   9 F                                       1.3532808
    11   6 C       13   9 F                                       1.3446413
    11   6 C       14   9 F                                       1.3447554

 * 3 distinct bonds (by element types)

   Z      Z             #   av. dist./Å        max./Å        min./Å
   1 H    6 C           4     1.0793491     1.0800973     1.0786080
   6 C    6 C           6     1.3820546     1.3923878     1.3635937
   6 C    9 F           3     1.3475592     1.3532808     1.3446413


optimized geometry written to: xtbopt.xyz


           -------------------------------------------------
          | TOTAL ENERGY              -31.131002013732 Eh   |
          | GRADIENT NORM               0.000294016911 Eh/α |
          | HOMO-LUMO GAP               2.470229204692 eV   |
           -------------------------------------------------

------------------------------------------------------------------------
 * finished run on 2022/11/14 at 22:12:39.616     
------------------------------------------------------------------------
 total:
 * wall-time:     0 d,  0 h,  0 min,  8.859 sec
 *  cpu-time:     0 d,  0 h,  0 min, 42.766 sec
 * ratio c/w:     4.828 speedup
 SCF:
 * wall-time:     0 d,  0 h,  0 min,  2.113 sec
 *  cpu-time:     0 d,  0 h,  0 min,  8.969 sec
 * ratio c/w:     4.245 speedup
 ANC optimizer:
 * wall-time:     0 d,  0 h,  0 min,  6.668 sec
 *  cpu-time:     0 d,  0 h,  0 min, 33.297 sec
 * ratio c/w:     4.994 speedup

